# vtk DataFile Version 3.0
#This file was generated by the deal.II library on 2017/9/27 at 13:18:31
ASCII
DATASET UNSTRUCTURED_GRID

POINTS 2688 double
-5.63207 0 0
-5.3974 0 0
-5.63207 0.0714286 0
-5.3974 0.0714286 0
-5.3974 0 0
-5.16273 0 0
-5.3974 0.0714286 0
-5.16273 0.0714286 0
-5.16273 0 0
-4.92806 0 0
-5.16273 0.0714286 0
-4.92806 0.0714286 0
-4.92806 0 0
-4.69339 0 0
-4.92806 0.0714286 0
-4.69339 0.0714286 0
-4.69339 0 0
-4.45872 0 0
-4.69339 0.0714286 0
-4.45872 0.0714286 0
-4.45872 0 0
-4.22405 0 0
-4.45872 0.0714286 0
-4.22405 0.0714286 0
-4.22405 0 0
-3.98938 0 0
-4.22405 0.0714286 0
-3.98938 0.0714286 0
-3.98938 0 0
-3.75472 0 0
-3.98938 0.0714286 0
-3.75472 0.0714286 0
-3.75472 0 0
-3.52005 0 0
-3.75472 0.0714286 0
-3.52005 0.0714286 0
-3.52005 0 0
-3.28538 0 0
-3.52005 0.0714286 0
-3.28538 0.0714286 0
-3.28538 0 0
-3.05071 0 0
-3.28538 0.0714286 0
-3.05071 0.0714286 0
-3.05071 0 0
-2.81604 0 0
-3.05071 0.0714286 0
-2.81604 0.0714286 0
-2.81604 0 0
-2.58137 0 0
-2.81604 0.0714286 0
-2.58137 0.0714286 0
-2.58137 0 0
-2.3467 0 0
-2.58137 0.0714286 0
-2.3467 0.0714286 0
-2.3467 0 0
-2.11203 0 0
-2.3467 0.0714286 0
-2.11203 0.0714286 0
-2.11203 0 0
-1.87736 0 0
-2.11203 0.0714286 0
-1.87736 0.0714286 0
-1.87736 0 0
-1.64269 0 0
-1.87736 0.0714286 0
-1.64269 0.0714286 0
-1.64269 0 0
-1.40802 0 0
-1.64269 0.0714286 0
-1.40802 0.0714286 0
-1.40802 0 0
-1.17335 0 0
-1.40802 0.0714286 0
-1.17335 0.0714286 0
-1.17335 0 0
-0.938679 0 0
-1.17335 0.0714286 0
-0.938679 0.0714286 0
-0.938679 0 0
-0.704009 0 0
-0.938679 0.0714286 0
-0.704009 0.0714286 0
-0.704009 0 0
-0.469339 0 0
-0.704009 0.0714286 0
-0.469339 0.0714286 0
-0.469339 0 0
-0.23467 0 0
-0.469339 0.0714286 0
-0.23467 0.0714286 0
-0.23467 0 0
0 0 0
-0.23467 0.0714286 0
0 0.0714286 0
0 0 0
0.23467 0 0
0 0.0714286 0
0.23467 0.0714286 0
0.23467 0 0
0.469339 0 0
0.23467 0.0714286 0
0.469339 0.0714286 0
0.469339 0 0
0.704009 0 0
0.469339 0.0714286 0
0.704009 0.0714286 0
0.704009 0 0
0.938679 0 0
0.704009 0.0714286 0
0.938679 0.0714286 0
0.938679 0 0
1.17335 0 0
0.938679 0.0714286 0
1.17335 0.0714286 0
1.17335 0 0
1.40802 0 0
1.17335 0.0714286 0
1.40802 0.0714286 0
1.40802 0 0
1.64269 0 0
1.40802 0.0714286 0
1.64269 0.0714286 0
1.64269 0 0
1.87736 0 0
1.64269 0.0714286 0
1.87736 0.0714286 0
1.87736 0 0
2.11203 0 0
1.87736 0.0714286 0
2.11203 0.0714286 0
2.11203 0 0
2.3467 0 0
2.11203 0.0714286 0
2.3467 0.0714286 0
2.3467 0 0
2.58137 0 0
2.3467 0.0714286 0
2.58137 0.0714286 0
2.58137 0 0
2.81604 0 0
2.58137 0.0714286 0
2.81604 0.0714286 0
2.81604 0 0
3.05071 0 0
2.81604 0.0714286 0
3.05071 0.0714286 0
3.05071 0 0
3.28538 0 0
3.05071 0.0714286 0
3.28538 0.0714286 0
3.28538 0 0
3.52005 0 0
3.28538 0.0714286 0
3.52005 0.0714286 0
3.52005 0 0
3.75472 0 0
3.52005 0.0714286 0
3.75472 0.0714286 0
3.75472 0 0
3.98938 0 0
3.75472 0.0714286 0
3.98938 0.0714286 0
3.98938 0 0
4.22405 0 0
3.98938 0.0714286 0
4.22405 0.0714286 0
4.22405 0 0
4.45872 0 0
4.22405 0.0714286 0
4.45872 0.0714286 0
4.45872 0 0
4.69339 0 0
4.45872 0.0714286 0
4.69339 0.0714286 0
4.69339 0 0
4.92806 0 0
4.69339 0.0714286 0
4.92806 0.0714286 0
4.92806 0 0
5.16273 0 0
4.92806 0.0714286 0
5.16273 0.0714286 0
5.16273 0 0
5.3974 0 0
5.16273 0.0714286 0
5.3974 0.0714286 0
5.3974 0 0
5.63207 0 0
5.3974 0.0714286 0
5.63207 0.0714286 0
-5.63207 0.0714286 0
-5.3974 0.0714286 0
-5.63207 0.142857 0
-5.3974 0.142857 0
-5.3974 0.0714286 0
-5.16273 0.0714286 0
-5.3974 0.142857 0
-5.16273 0.142857 0
-5.16273 0.0714286 0
-4.92806 0.0714286 0
-5.16273 0.142857 0
-4.92806 0.142857 0
-4.92806 0.0714286 0
-4.69339 0.0714286 0
-4.92806 0.142857 0
-4.69339 0.142857 0
-4.69339 0.0714286 0
-4.45872 0.0714286 0
-4.69339 0.142857 0
-4.45872 0.142857 0
-4.45872 0.0714286 0
-4.22405 0.0714286 0
-4.45872 0.142857 0
-4.22405 0.142857 0
-4.22405 0.0714286 0
-3.98938 0.0714286 0
-4.22405 0.142857 0
-3.98938 0.142857 0
-3.98938 0.0714286 0
-3.75472 0.0714286 0
-3.98938 0.142857 0
-3.75472 0.142857 0
-3.75472 0.0714286 0
-3.52005 0.0714286 0
-3.75472 0.142857 0
-3.52005 0.142857 0
-3.52005 0.0714286 0
-3.28538 0.0714286 0
-3.52005 0.142857 0
-3.28538 0.142857 0
-3.28538 0.0714286 0
-3.05071 0.0714286 0
-3.28538 0.142857 0
-3.05071 0.142857 0
-3.05071 0.0714286 0
-2.81604 0.0714286 0
-3.05071 0.142857 0
-2.81604 0.142857 0
-2.81604 0.0714286 0
-2.58137 0.0714286 0
-2.81604 0.142857 0
-2.58137 0.142857 0
-2.58137 0.0714286 0
-2.3467 0.0714286 0
-2.58137 0.142857 0
-2.3467 0.142857 0
-2.3467 0.0714286 0
-2.11203 0.0714286 0
-2.3467 0.142857 0
-2.11203 0.142857 0
-2.11203 0.0714286 0
-1.87736 0.0714286 0
-2.11203 0.142857 0
-1.87736 0.142857 0
-1.87736 0.0714286 0
-1.64269 0.0714286 0
-1.87736 0.142857 0
-1.64269 0.142857 0
-1.64269 0.0714286 0
-1.40802 0.0714286 0
-1.64269 0.142857 0
-1.40802 0.142857 0
-1.40802 0.0714286 0
-1.17335 0.0714286 0
-1.40802 0.142857 0
-1.17335 0.142857 0
-1.17335 0.0714286 0
-0.938679 0.0714286 0
-1.17335 0.142857 0
-0.938679 0.142857 0
-0.938679 0.0714286 0
-0.704009 0.0714286 0
-0.938679 0.142857 0
-0.704009 0.142857 0
-0.704009 0.0714286 0
-0.469339 0.0714286 0
-0.704009 0.142857 0
-0.469339 0.142857 0
-0.469339 0.0714286 0
-0.23467 0.0714286 0
-0.469339 0.142857 0
-0.23467 0.142857 0
-0.23467 0.0714286 0
0 0.0714286 0
-0.23467 0.142857 0
0 0.142857 0
0 0.0714286 0
0.23467 0.0714286 0
0 0.142857 0
0.23467 0.142857 0
0.23467 0.0714286 0
0.469339 0.0714286 0
0.23467 0.142857 0
0.469339 0.142857 0
0.469339 0.0714286 0
0.704009 0.0714286 0
0.469339 0.142857 0
0.704009 0.142857 0
0.704009 0.0714286 0
0.938679 0.0714286 0
0.704009 0.142857 0
0.938679 0.142857 0
0.938679 0.0714286 0
1.17335 0.0714286 0
0.938679 0.142857 0
1.17335 0.142857 0
1.17335 0.0714286 0
1.40802 0.0714286 0
1.17335 0.142857 0
1.40802 0.142857 0
1.40802 0.0714286 0
1.64269 0.0714286 0
1.40802 0.142857 0
1.64269 0.142857 0
1.64269 0.0714286 0
1.87736 0.0714286 0
1.64269 0.142857 0
1.87736 0.142857 0
1.87736 0.0714286 0
2.11203 0.0714286 0
1.87736 0.142857 0
2.11203 0.142857 0
2.11203 0.0714286 0
2.3467 0.0714286 0
2.11203 0.142857 0
2.3467 0.142857 0
2.3467 0.0714286 0
2.58137 0.0714286 0
2.3467 0.142857 0
2.58137 0.142857 0
2.58137 0.0714286 0
2.81604 0.0714286 0
2.58137 0.142857 0
2.81604 0.142857 0
2.81604 0.0714286 0
3.05071 0.0714286 0
2.81604 0.142857 0
3.05071 0.142857 0
3.05071 0.0714286 0
3.28538 0.0714286 0
3.05071 0.142857 0
3.28538 0.142857 0
3.28538 0.0714286 0
3.52005 0.0714286 0
3.28538 0.142857 0
3.52005 0.142857 0
3.52005 0.0714286 0
3.75472 0.0714286 0
3.52005 0.142857 0
3.75472 0.142857 0
3.75472 0.0714286 0
3.98938 0.0714286 0
3.75472 0.142857 0
3.98938 0.142857 0
3.98938 0.0714286 0
4.22405 0.0714286 0
3.98938 0.142857 0
4.22405 0.142857 0
4.22405 0.0714286 0
4.45872 0.0714286 0
4.22405 0.142857 0
4.45872 0.142857 0
4.45872 0.0714286 0
4.69339 0.0714286 0
4.45872 0.142857 0
4.69339 0.142857 0
4.69339 0.0714286 0
4.92806 0.0714286 0
4.69339 0.142857 0
4.92806 0.142857 0
4.92806 0.0714286 0
5.16273 0.0714286 0
4.92806 0.142857 0
5.16273 0.142857 0
5.16273 0.0714286 0
5.3974 0.0714286 0
5.16273 0.142857 0
5.3974 0.142857 0
5.3974 0.0714286 0
5.63207 0.0714286 0
5.3974 0.142857 0
5.63207 0.142857 0
-5.63207 0.142857 0
-5.3974 0.142857 0
-5.63207 0.214286 0
-5.3974 0.214286 0
-5.3974 0.142857 0
-5.16273 0.142857 0
-5.3974 0.214286 0
-5.16273 0.214286 0
-5.16273 0.142857 0
-4.92806 0.142857 0
-5.16273 0.214286 0
-4.92806 0.214286 0
-4.92806 0.142857 0
-4.69339 0.142857 0
-4.92806 0.214286 0
-4.69339 0.214286 0
-4.69339 0.142857 0
-4.45872 0.142857 0
-4.69339 0.214286 0
-4.45872 0.214286 0
-4.45872 0.142857 0
-4.22405 0.142857 0
-4.45872 0.214286 0
-4.22405 0.214286 0
-4.22405 0.142857 0
-3.98938 0.142857 0
-4.22405 0.214286 0
-3.98938 0.214286 0
-3.98938 0.142857 0
-3.75472 0.142857 0
-3.98938 0.214286 0
-3.75472 0.214286 0
-3.75472 0.142857 0
-3.52005 0.142857 0
-3.75472 0.214286 0
-3.52005 0.214286 0
-3.52005 0.142857 0
-3.28538 0.142857 0
-3.52005 0.214286 0
-3.28538 0.214286 0
-3.28538 0.142857 0
-3.05071 0.142857 0
-3.28538 0.214286 0
-3.05071 0.214286 0
-3.05071 0.142857 0
-2.81604 0.142857 0
-3.05071 0.214286 0
-2.81604 0.214286 0
-2.81604 0.142857 0
-2.58137 0.142857 0
-2.81604 0.214286 0
-2.58137 0.214286 0
-2.58137 0.142857 0
-2.3467 0.142857 0
-2.58137 0.214286 0
-2.3467 0.214286 0
-2.3467 0.142857 0
-2.11203 0.142857 0
-2.3467 0.214286 0
-2.11203 0.214286 0
-2.11203 0.142857 0
-1.87736 0.142857 0
-2.11203 0.214286 0
-1.87736 0.214286 0
-1.87736 0.142857 0
-1.64269 0.142857 0
-1.87736 0.214286 0
-1.64269 0.214286 0
-1.64269 0.142857 0
-1.40802 0.142857 0
-1.64269 0.214286 0
-1.40802 0.214286 0
-1.40802 0.142857 0
-1.17335 0.142857 0
-1.40802 0.214286 0
-1.17335 0.214286 0
-1.17335 0.142857 0
-0.938679 0.142857 0
-1.17335 0.214286 0
-0.938679 0.214286 0
-0.938679 0.142857 0
-0.704009 0.142857 0
-0.938679 0.214286 0
-0.704009 0.214286 0
-0.704009 0.142857 0
-0.469339 0.142857 0
-0.704009 0.214286 0
-0.469339 0.214286 0
-0.469339 0.142857 0
-0.23467 0.142857 0
-0.469339 0.214286 0
-0.23467 0.214286 0
-0.23467 0.142857 0
0 0.142857 0
-0.23467 0.214286 0
0 0.214286 0
0 0.142857 0
0.23467 0.142857 0
0 0.214286 0
0.23467 0.214286 0
0.23467 0.142857 0
0.469339 0.142857 0
0.23467 0.214286 0
0.469339 0.214286 0
0.469339 0.142857 0
0.704009 0.142857 0
0.469339 0.214286 0
0.704009 0.214286 0
0.704009 0.142857 0
0.938679 0.142857 0
0.704009 0.214286 0
0.938679 0.214286 0
0.938679 0.142857 0
1.17335 0.142857 0
0.938679 0.214286 0
1.17335 0.214286 0
1.17335 0.142857 0
1.40802 0.142857 0
1.17335 0.214286 0
1.40802 0.214286 0
1.40802 0.142857 0
1.64269 0.142857 0
1.40802 0.214286 0
1.64269 0.214286 0
1.64269 0.142857 0
1.87736 0.142857 0
1.64269 0.214286 0
1.87736 0.214286 0
1.87736 0.142857 0
2.11203 0.142857 0
1.87736 0.214286 0
2.11203 0.214286 0
2.11203 0.142857 0
2.3467 0.142857 0
2.11203 0.214286 0
2.3467 0.214286 0
2.3467 0.142857 0
2.58137 0.142857 0
2.3467 0.214286 0
2.58137 0.214286 0
2.58137 0.142857 0
2.81604 0.142857 0
2.58137 0.214286 0
2.81604 0.214286 0
2.81604 0.142857 0
3.05071 0.142857 0
2.81604 0.214286 0
[...]
POINT_DATA 2688
SCALARS x1_displacement double 1
LOOKUP_TABLE default
2.1906e-16 -0.0225775 1.73849e-16 -0.0221893 -0.0225775 -0.0437846 -0.0221893 -0.0431422 -0.0437846 -0.0607748 -0.0431422 -0.0601204 -0.0607748 -0.0684025 -0.0601204 -0.0679704 -0.0684025 -0.0608079 -0.0679704 -0.0606411 -0.0608079 -0.0384732 -0.0606411 -0.0384155 -0.0384732 -0.0153824 -0.0384155 -0.0154404 -0.0153824 -0.00569079 -0.0154404 -0.00604574 -0.00569079 -0.00986035 -0.00604574 -0.0105076 -0.00986035 -0.0214751 -0.0105076 -0.0222243 -0.0214751 -0.0345008 -0.0222243 -0.0351558 -0.0345008 -0.0452469 -0.0351558 -0.0457093 -0.0452469 -0.0520925 -0.0457093 -0.0523559 -0.0520925 -0.0547803 -0.0523559 -0.0548853 -0.0547803 -0.053819 -0.0548853 -0.0538181 -0.053819 -0.0500722 -0.0538181 -0.050012 -0.0500722 -0.0444849 -0.050012 -0.0444007 -0.0444849 -0.037907 -0.0444007 -0.0378222 -0.037907 -0.0309937 -0.0378222 -0.0309211 -0.0309937 -0.0241734 -0.0309211 -0.0241182 -0.0241734 -0.0176651 -0.0241182 -0.0176273 -0.0176651 -0.011521 -0.0176273 -0.0114982 -0.011521 -0.00567731 -0.0114982 -0.00566678 -0.00567731 0 -0.00566678 0 0 0.00567731 0 0.00566678 0.00567731 0.011521 0.00566678 0.0114982 0.011521 0.0176651 0.0114982 0.0176273 0.0176651 0.0241734 0.0176273 0.0241182 0.0241734 0.0309937 0.0241182 0.0309211 0.0309937 0.037907 0.0309211 0.0378222 0.037907 0.0444849 0.0378222 0.0444007 0.0444849 0.0500722 0.0444007 0.050012 0.0500722 0.053819 0.050012 0.0538181 0.053819 0.0547803 0.0538181 0.0548853 0.0547803 0.0520925 0.0548853 0.0523559 0.0520925 0.0452469 0.0523559 0.0457093 0.0452469 0.0345008 0.0457093 0.0351558 0.0345008 0.0214751 0.0351558 0.0222243 0.0214751 0.00986035 0.0222243 0.0105076 0.00986035 0.00569079 0.0105076 0.00604574 0.00569079 0.0153824 0.00604574 0.0154404 0.0153824 0.0384732 0.0154404 0.0384155 0.0384732 0.0608079 0.0384155 0.0606411 0.0608079 0.0684025 0.0606411 0.0679704 0.0684025 0.0607748 0.0679704 0.0601204 0.0607748 0.0437846 0.0601204 0.0431422 0.0437846 0.0225775 0.0431422 0.0221893 0.0225775 2.1906e-16 0.0221893 1.73849e-16 1.73849e-16 -0.0221893 1.31952e-16 -0.0210612 -0.0221893 -0.0431422 -0.0210612 -0.0412566 -0.0431422 -0.0601204 -0.0412566 -0.0581748 -0.0601204 -0.0679704 -0.0581748 -0.066687 -0.0679704 -0.0606411 -0.066687 -0.0601792 -0.0606411 -0.0384155 -0.0601792 -0.0382557 -0.0384155 -0.0154404 -0.0382557 -0.0155934 -0.0154404 -0.00604574 -0.0155934 -0.00709465 -0.00604574 -0.0105076 -0.00709465 -0.012402 -0.0105076 -0.0222243 -0.012402 -0.0243711 -0.0222243 -0.0351558 -0.0243711 -0.0369949 -0.0351558 -0.0457093 -0.0369949 -0.0469846 -0.0457093 -0.0523559 -0.0469846 -0.053068 -0.0523559 -0.0548853 -0.053068 -0.0551575 -0.0548853 -0.0538181 -0.0551575 -0.0537995 -0.0538181 -0.050012 -0.0537995 -0.0498332 -0.050012 -0.0444007 -0.0498332 -0.0441594 -0.0444007 -0.0378222 -0.0441594 -0.0375823 -0.0378222 -0.0309211 -0.0375823 -0.0307176 -0.0309211 -0.0241182 -0.0307176 -0.0239645 -0.0241182 -0.0176273 -0.0239645 -0.0175227 -0.0176273 -0.0114982 -0.0175227 -0.0114356 -0.0114982 -0.00566678 -0.0114356 -0.00563799 -0.00566678 0 -0.00563799 0 0 0.00566678 0 0.00563799 0.00566678 0.0114982 0.00563799 0.0114356 0.0114982 0.0176273 0.0114356 0.0175227 0.0176273 0.0241182 0.0175227 0.0239645 0.0241182 0.0309211 0.0239645 0.0307176 0.0309211 0.0378222 0.0307176 0.0375823 0.0378222 0.0444007 0.0375823 0.0441594 0.0444007 0.050012 0.0441594 0.0498332 0.050012 0.0538181 0.0498332 0.0537995 0.0538181 0.0548853 0.0537995 0.0551575 0.0548853 0.0523559 0.0551575 0.053068 0.0523559 0.0457093 0.053068 0.0469846 0.0457093 0.0351558 0.0469846 0.0369949 0.0351558 0.0222243 0.0369949 0.0243711 0.0222243 0.0105076 0.0243711 0.012402 0.0105076 0.00604574 0.012402 0.00709465 0.00604574 0.0154404 0.00709465 0.0155934 0.0154404 0.0384155 0.0155934 0.0382557 0.0384155 0.0606411 0.0382557 0.0601792 0.0606411 0.0679704 0.0601792 0.066687 0.0679704 0.0601204 0.066687 0.0581748 0.0601204 0.0431422 0.0581748 0.0412566 0.0431422 0.0221893 0.0412566 0.0210612 0.0221893 1.73849e-16 0.0210612 1.31952e-16 1.31952e-16 -0.0210612 1.13196e-16 -0.0192459 -0.0210612 -0.0412566 -0.0192459 -0.0381886 -0.0412566 -0.0581748 -0.0381886 -0.0549678 -0.0581748 -0.066687 -0.0549678 -0.0645703 -0.066687 -0.0601792 -0.0645703 -0.0594651 -0.0601792 -0.0382557 -0.0594651 -0.0380086 -0.0382557 -0.0155934 -0.0380086 -0.0158214 -0.0155934 -0.00709465 -0.0158214 -0.00882513 -0.00709465 -0.012402 -0.00882513 -0.0154913 -0.012402 -0.0243711 -0.0154913 -0.0277956 -0.0243711 -0.0369949 -0.0277956 -0.0398665 -0.0369949 -0.0469846 -0.0398665 -0.0489396 -0.0469846 -0.053068 -0.0489396 -0.0541395 -0.053068 -0.0551575 -0.0541395 -0.0555512 -0.0551575 -0.0537995 -0.0555512 -0.0537503 -0.0537995 -0.0498332 -0.0537503 -0.0495431 -0.0498332 -0.0441594 -0.0495431 -0.0437783 -0.0441594 -0.0375823 -0.0437783 -0.0372076 -0.0375823 -0.0307176 -0.0372076 -0.0304021 -0.0307176 -0.0239645 -0.0304021 -0.0237276 -0.0239645 -0.0175227 -0.0237276 -0.0173626 -0.0175227 -0.0114356 -0.0173626 -0.0113402 -0.0114356 -0.00563799 -0.0113402 -0.00559435 -0.00563799 0 -0.00559435 0 0 0.00563799 0 0.00559435 0.00563799 0.0114356 0.00559435 0.0113402 0.0114356 0.0175227 0.0113402 0.0173626 0.0175227 0.0239645 0.0173626 0.0237276 0.0239645 0.0307176 0.0237276 0.0304021 0.0307176 0.0375823 0.0304021 0.0372076 0.0375823 0.0441594 0.0372076 0.0437783 0.0441594 0.0498332 0.0437783 0.0495431 0.0498332 0.0537995 0.0495431 0.0537503 0.0537995 0.0551575 0.0537503 0.0555512 0.0551575 0.053068 0.0555512 0.0541395 0.053068 0.0469846 0.0541395 0.0489396 0.0469846 0.0369949 0.0489396 0.0398665 0.0369949 0.0243711 0.0398665 0.0277956 0.0243711 0.012402 0.0277956 0.0154913 0.012402 0.00709465 0.0154913 0.00882513 0.00709465 0.0155934 0.00882513 0.0158214 0.0155934 0.0382557 0.0158214 0.0380086 0.0382557 0.0601792 0.0380086 0.0594651 0.0601792 0.066687 0.0594651 0.0645703 0.066687 0.0581748 0.0645703 0.0549678 0.0581748 0.0412566 0.0549678 0.0381886 0.0412566 0.0210612 0.0381886 0.0192459 0.0210612 1.31952e-16 0.0192459 1.13196e-16 1.13196e-16 -0.0192459 9.63651e-17 -0.0167704 -0.0192459 -0.0381886 -0.0167704 -0.0339287 -0.0381886 -0.0549678 -0.0339287 -0.0504021 -0.0549678 -0.0645703 -0.0504021 -0.0614941 -0.0645703 -0.0594651 -0.0614941 -0.0584599 -0.0594651 -0.0380086 -0.0584599 -0.0376853 -0.0380086 -0.0158214 -0.0376853 -0.0161763 -0.0158214 -0.00882513 -0.0161763 -0.0113563 -0.00882513 -0.0154913 -0.0113563 -0.0198359 -0.0154913 -0.0277956 -0.0198359 -0.0324319 -0.0277956 -0.0398665 -0.0324319 -0.0436279 -0.0398665 -0.0489396 -0.0436279 -0.0514289 -0.0489396 -0.0541395 -0.0514289 -0.0554618 -0.0541395 -0.0555512 -0.0554618 -0.0560012 -0.0555512 -0.0537503 -0.0560012 -0.0536406 -0.0537503 -0.0495431 -0.0536406 -0.049136 -0.0495431 -0.0437783 -0.049136 -0.0432662 -0.0437783 -0.0372076 -0.0432662 -0.0367137 -0.0372076 -0.0304021 -0.0367137 -0.0299919 -0.0304021 -0.0237276 -0.0299919 -0.0234232 -0.0237276 -0.0173626 -0.0234232 -0.0171592 -0.0173626 -0.0113402 -0.0171592 -0.0112204 -0.0113402 -0.00559435 -0.0112204 -0.00553996 -0.00559435 0 -0.00553996 0 0 0.00559435 0 0.00553996 0.00559435 0.0113402 0.00553996 0.0112204 0.0113402 0.0173626 0.0112204 0.0171592 0.0173626 0.0237276 0.0171592 0.0234232 0.0237276 0.0304021 0.0234232 0.0299919 0.0304021 0.0372076 0.0299919 0.0367137 0.0372076 0.0437783 0.0367137 0.0432662 0.0437783 0.0495431 0.0432662 0.049136 0.0495431 0.0537503 0.049136 0.0536406 0.0537503 0.0555512 0.0536406 0.0560012 0.0555512 0.0541395 0.0560012 0.0554618 0.0541395 0.0489396 0.0554618 0.0514289 0.0489396 0.0398665 0.0514289 0.0436279 0.0398665 0.0277956 0.0436279 0.0324319 0.0277956 0.0154913 0.0324319 0.0198359 0.0154913 0.00882513 0.0198359 0.0113563 0.00882513 0.0158214 0.0113563 0.0161763 0.0158214 0.0380086 0.0161763 0.0376853 0.0380086 0.0594651 0.0376853 0.0584599 0.0594651 0.0645703 0.0584599 0.0614941 0.0645703 0.0549678 0.0614941 0.0504021 0.0549678 0.0381886 0.0504021 0.0339287 0.0381886 0.0192459 0.0339287 0.0167704 0.0192459 1.13196e-16 0.0167704 9.63651e-17 9.63651e-17 -0.0167704 8.95206e-17 -0.0136563 -0.0167704 -0.0339287 -0.0136563 -0.028429 -0.0339287 -0.0504021 -0.028429 -0.0442745 -0.0504021 -0.0614941 -0.0442745 -0.0571883 -0.0614941 -0.0584599 -0.0571883 -0.0570427 -0.0584599 -0.0376853 -0.0570427 -0.0372944 -0.0376853 -0.0161763 -0.0372944 -0.016784 -0.0161763 -0.0113563 -0.016784 -0.0149414 -0.0113563 -0.0198359 -0.0149414 -0.0255927 -0.0198359 -0.0324319 -0.0255927 -0.0382446 -0.0324319 -0.0436279 -0.0382446 -0.0481322 -0.0436279 -0.0514289 -0.0481322 -0.0542944 -0.0514289 -0.0554618 -0.0542944 -0.056912 -0.0554618 -0.0560012 -0.056912 -0.0564279 -0.0560012 -0.0536406 -0.0564279 -0.0534281 -0.0536406 -0.049136 -0.0534281 -0.048597 -0.049136 -0.0432662 -0.048597 -0.0426257 -0.0432662 -0.0367137 -0.0426257 -0.0361133 -0.0367137 -0.0299919 -0.0361133 -0.0295032 -0.0299919 -0.0234232 -0.0295032 -0.0230673 -0.0234232 -0.0171592 -0.0230673 -0.0169257 -0.0171592 -0.0112204 -0.0169257 -0.0110853 -0.0112204 -0.00553996 -0.0110853 -0.00547952 -0.00553996 0 -0.00547952 0 0 0.00553996 0 0.00547952 0.00553996 0.0112204 0.00547952 0.0110853 0.0112204 0.0171592 0.0110853 0.0169257 0.0171592 0.0234232 0.0169257 0.0230673 0.0234232 0.0299919 0.0230673 0.0295032 0.0299919 0.0367137 0.0295032 0.0361133 0.0367137 0.0432662 0.0361133 0.0426257 0.0432662 0.049136 0.0426257 0.048597 0.049136 0.0536406 0.048597 0.0534281 0.0536406 0.0560012 0.0534281 0.0564279 0.0560012 0.0554618 0.0564279 0.056912 0.0554618 0.0514289 0.056912 0.0542944 0.0514289 0.0436279 0.0542944 0.0481322 0.0436279 0.0324319 0.0481322 0.0382446 0.0324319 0.0198359 0.0382446 0.0255927 0.0198359 0.0113563 0.0255927 0.0149414 0.0113563 0.0161763 0.0149414 0.016784 0.0161763 0.0376853 0.016784 0.0372944 0.0376853 0.0584599 0.0372944 0.0570427 0.0584599 0.0614941 0.0570427 0.0571883 0.0614941 0.0504021 0.0571883 0.0442745 0.0504021 0.0339287 0.0442745 0.028429 0.0339287 0.0167704 0.028429 0.0136563 0.0167704 9.63651e-17 0.0136563 8.95206e-17 8.95206e-17 -0.0136563 8.53046e-17 -0.00994158 -0.0136563 -0.028429 -0.00994158 -0.0216425 -0.028429 -0.0442745 -0.0216425 -0.036302 -0.0442745 -0.0571883 -0.036302 -0.0512232 -0.0571883 -0.0570427 -0.0512232 -0.0549896 -0.0570427 -0.0372944 -0.0549896 -0.0368437 -0.0372944 -0.016784 -0.0368437 -0.0178683 -0.016784 -0.0149414 -0.0178683 -0.0199882 -0.0149414 -0.0255927 -0.0199882 -0.0329966 -0.0255927 -0.0382446 -0.0329966 -0.0451966 -0.0382446 -0.0481322 -0.0451966 -0.0532119 -0.0481322 -0.0542944 -0.0532119 -0.0573628 -0.0542944 -0.056912 -0.0573628 -0.0583562 -0.056912 -0.0564279 -0.0583562 -0.0567423 -0.0564279 -0.0534281 -0.0567423 -0.0530621 -0.0534281 -0.048597 -0.0530621 -0.0479051 -0.048597 -0.0426257 -0.0479051 -0.0418561 -0.0426257 -0.0361133 -0.0418561 -0.035417 -0.0361133 -0.0295032 -0.035417 -0.0289522 -0.0295032 -0.0230673 -0.0289522 -0.0226764 -0.0230673 -0.0169257 -0.0226764 -0.0166762 -0.0169257 -0.0110853 -0.0166762 -0.0109449 -0.0110853 -0.00547952 -0.0109449 -0.00541811 -0.00547952 0 -0.00541811 0 0 0.00547952 0 0.00541811 0.00547952 0.0110853 0.00541811 0.0109449 0.0110853 0.0169257 0.0109449 0.0166762 0.0169257 0.0230673 0.0166762 0.0226764 0.0230673 0.0295032 0.0226764 0.0289522 0.0295032 0.0361133 0.0289522 0.035417 0.0361133 0.0426257 0.035417 0.0418561 0.0426257 0.048597 0.0418561 0.0479051 0.048597 0.0534281 0.0479051 0.0530621 0.0534281 0.0564279 0.0530621 0.0567423 0.0564279 0.056912 0.0567423 0.0583562 0.056912 0.0542944 0.0583562 0.0573628 0.0542944 0.0481322 0.0573628 0.0532119 0.0481322 0.0382446 0.0532119 0.0451966 0.0382446 0.0255927 0.0451966 0.0329966 0.0255927 0.0149414 0.0329966 0.0199882 0.0149414 0.016784 0.0199882 0.0178683 0.016784 0.0372944 0.0178683 0.0368437 0.0372944 0.0570427 0.0368437 0.0549896 0.0570427 0.0571883 0.0549896 0.0512232 0.0571883 0.0442745 0.0512232 0.036302 0.0442745 0.028429 0.036302 0.0216425 0.028429 0.0136563 0.0216425 0.00994158 0.0136563 8.95206e-17 0.00994158 8.53046e-17 8.53046e-17 -0.00994158 7.97382e-17 -0.00570012 -0.00994158 -0.0216425 -0.00570012 -0.0135713 -0.0216425 -0.036302 -0.0135713 -0.0261581 -0.036302 -0.0512232 -0.0261581 -0.0429736 -0.0512232 -0.0549896 -0.0429736 -0.0519214 -0.0549896 -0.0368437 -0.0519214 -0.0363408 -0.0368437 -0.0178683 -0.0363408 -0.0198043 -0.0178683 -0.0199882 -0.0198043 -0.027098 -0.0199882 -0.0329966 -0.027098 -0.0423302 -0.0329966 -0.0451966 -0.0423302 -0.0532074 -0.0451966 -0.0532119 -0.0532074 -0.0586642 -0.0532119 -0.0573628 -0.0586642 -0.0604468 -0.0573628 -0.0583562 -0.0604468 -0.0596532 -0.0583562 -0.0567423 -0.0596532 -0.0568491 -0.0567423 -0.0530621 -0.0568491 -0.0524875 -0.0530621 -0.0479051 -0.0524875 -0.0470358 -0.0479051 -0.0418561 -0.0470358 -0.0409546 -0.0418561 -0.035417 -0.0409546 -0.0346354 -0.035417 -0.0289522 -0.0346354 -0.0283551 -0.0289522 -0.0226764 -0.0283551 -0.0222678 -0.0226764 -0.0166762 -0.0222678 -0.0164255 -0.0166762 -0.0109449 -0.0164255 -0.0108098 -0.0109449 -0.00541811 -0.0108098 -0.00536117 -0.00541811 0 -0.00536117 0 0 0.00541811 0 0.00536117 0.00541811 0.0109449 0.00536117 0.0108098 0.0109449 0.0166762 0.0108098 0.0164255 0.0166762 0.0226764 0.0164255 0.0222678 0.0226764 0.0289522 0.0222678 0.0283551 0.0289522 0.035417 0.0283551 0.0346354 0.035417 0.0418561 0.0346354 0.0409546 0.0418561 0.0479051 0.0409546 0.0470358 0.0479051 0.0530621 0.0470358 0.0524875 0.0530621 0.0567423 0.0524875 0.0568491 0.0567423 0.0583562 0.0568491 0.0596532 0.0583562 0.0573628 0.0596532 0.0604468 0.0573628 0.0532119 0.0604468 0.0586642 0.0532119 0.0451966 0.0586642 0.0532074 0.0451966 0.0329966 0.0532074 0.0423302 0.0329966 0.0199882 0.0423302 0.027098 0.0199882 0.0178683 0.027098 0.0198043 0.0178683 0.0368437 0.0198043 0.0363408 0.0368437 0.0549896 0.0363408 0.0519214 0.0549896 0.0512232 0.0519214 0.0429736 0.0512232 0.036302 0.0429736 0.0261581 0.036302 0.0216425 0.0261581 0.0135713 0.0216425 0.00994158 0.0135713 0.00570012 0.00994158 8.53046e-17 0.00570012 7.97382e-17 7.97382e-17 -0.00570012 7.54469e-17 -0.00105285 -0.00570012 -0.0135713 -0.00105285 -0.00432614 -0.0135713 -0.0261581 -0.00432614 -0.0135438 -0.0261581 -0.0429736 -0.0135438 -0.0315702 -0.0429736 -0.0519214 -0.0315702 -0.0472049 -0.0519214 -0.0363408 -0.0472049 -0.0357951 -0.0363408 -0.0198043 -0.0357951 -0.0232181 -0.0198043 -0.027098 -0.0232181 -0.0371207 -0.027098 -0.0423302 -0.0371207 -0.0538606 -0.0423302 -0.0532074 -0.0538606 -0.0620983 -0.0532074 -0.0586642 -0.0620983 -0.0642413 -0.0586642 -0.0604468 -0.0642413 -0.0633478 -0.0604468 -0.0596532 -0.0633478 -0.0606565 -0.0596532 -0.0568491 -0.0606565 -0.0566494 -0.0568491 -0.0524875 -0.0566494 -0.0516466 -0.0524875 -0.0470358 -0.0516466 -0.0459641 -0.0470358 -0.0409546 -0.0459641 -0.0399188 -0.0409546 -0.0346354 -0.0399188 -0.0337796 -0.0346354 -0.0283551 -0.0337796 -0.0277295 -0.0283551 -0.0222678 -0.0277295 -0.0218599 -0.0222678 -0.0164255 -0.0218599 -0.0161894 -0.0164255 -0.0108098 -0.0161894 -0.010691 -0.0108098 -0.00536117 -0.010691 -0.00531443 -0.00536117 0 -0.00531443 0 0 0.00536117 0 0.00531443 0.00536117 0.0108098 0.00531443 0.010691 0.0108098 0.0164255 0.010691 0.0161894 0.0164255 0.0222678 0.0161894 0.0218599 0.0222678 0.0283551 0.0218599 0.0277295 0.0283551 0.0346354 0.0277295 0.0337796 0.0346354 0.0409546 0.0337796 0.0399188 0.0409546 0.0470358 0.0399188 0.0459641 0.0470358 0.0524875 0.0459641 0.0516466 0.0524875 0.0568491 0.0516466 0.0566494 0.0568491 0.0596532 0.0566494 0.0606565 0.0596532 0.0604468 0.0606565 0.0633478 0.0604468 0.0586642 0.0633478 0.0642413 0.0586642 0.0532074 0.0642413 0.0620983 0.0532074 0.0423302 0.0620983 0.0538606 0.0423302 0.027098 0.0538606 0.0371207 0.027098 0.0198043 0.0371207 0.0232181 0.0198043 0.0363408 0.0232181 0.0357951 0.0363408 0.0519214 0.0357951 0.0472049 0.0519214 0.0429736 0.0472049 0.0315702 0.0429736 0.0261581 0.0315702 0.0135438 0.0261581 0.0135713 0.0135438 0.00432614 0.0135713 0.00570012 0.00432614 0.00105285 0.00570012 7.97382e-17 0.00105285 7.54469e-17 7.54469e-17 -0.00105285 6.97807e-17 0.00383986 -0.00105285 -0.00432614 0.00383986 0.00581587 -0.00432614 -0.0135438 0.00581587 0.00167665 -0.0135438 -0.0315702 0.00167665 -0.015847 -0.0315702 -0.0472049 -0.015847 -0.039768 -0.0472049 -0.0357951 -0.039768 -0.0352178 -0.0357951 -0.0232181 -0.0352178 -0.0291732 -0.0232181 -0.0371207 -0.0291732 -0.0512152 -0.0371207 -0.0538606 -0.0512152 -0.0677103 -0.0538606 -0.0620983 -0.0677103 -0.0715356 -0.0620983 -0.0642413 -0.0715356 -0.0696578 -0.0642413 -0.0633478 -0.0696578 -0.0658616 -0.0633478 -0.0606565 -0.0658616 -0.0612169 -0.0606565 -0.0566494 -0.0612169 -0.0560441 -0.0566494 -0.0516466 -0.0560441 -0.0504826 -0.0516466 -0.0459641 -0.0504826 -0.0446661 -0.0459641 -0.0399188 -0.0446661 -0.0387481 -0.0399188 -0.0337796 -0.0387481 -0.0328632 -0.0337796 -0.0277295 -0.0328632 -0.0270951 -0.0277295 -0.0218599 -0.0270951 -0.0214725 -0.0218599 -0.0161894 -0.0214725 -0.0159845 -0.0161894 -0.010691 -0.0159845 -0.0106003 -0.010691 -0.00531443 -0.0106003 -0.00528383 -0.00531443 0 -0.00528383 0 0 0.00531443 0 0.00528383 0.00531443 0.010691 0.00528383 0.0106003 0.010691 0.0161894 0.0106003 0.0159845 0.0161894 0.0218599 0.0159845 0.0214725 0.0218599 0.0277295 0.0214725 0.0270951 0.0277295 0.0337796 0.0270951 0.0328632 0.0337796 0.0399188 0.0328632 0.0387481 0.0399188 0.0459641 0.0387481 0.0446661 0.0459641 0.0516466 0.0446661 0.0504826 0.0516466 0.0566494 0.0504826 0.0560441 0.0566494 0.0606565 0.0560441 0.0612169 0.0606565 0.0633478 0.0612169 0.0658616 0.0633478 0.0642413 0.0658616 0.0696578 0.0642413 0.0620983 0.0696578 0.0715356 0.0620983 0.0538606 0.0715356 0.0677103 0.0538606 0.0371207 0.0677103 0.0512152 0.0371207 0.0232181 0.0512152 0.0291732 0.0232181 0.0357951 0.0291732 0.0352178 0.0357951 0.0472049 0.0352178 0.039768 0.0472049 0.0315702 0.039768 0.015847 0.0315702 0.0135438 0.015847 -0.00167665 0.0135438 0.00432614 -0.00167665 -0.00581587 0.00432614 0.00105285 -0.00581587 -0.00383986 0.00105285 7.54469e-17 -0.00383986 6.97807e-17 6.97807e-17 0.00383986 6.20439e-17 0.00880968 0.00383986 0.00581587 0.00880968 0.0163909 0.00581587 0.00167665 0.0163909 0.0192183 0.00167665 -0.015847 0.0192183 0.00565634 -0.015847 -0.039768 0.00565634 -0.0277337 -0.039768 -0.0352178 -0.0277337 -0.0346231 -0.0352178 -0.0291732 -0.0346231 -0.0395386 -0.0291732 -0.0512152 -0.0395386 -0.0708615 -0.0512152 -0.0677103 -0.0708615 -0.0836033 -0.0677103 -0.0715356 -0.0836033 -0.0810082 -0.0715356 -0.0696578 -0.0810082 -0.0746197 -0.0696578 -0.0658616 -0.0746197 -0.0677816 -0.0658616 -0.0612169 -0.0677816 -0.0611841 -0.0612169 -0.0560441 -0.0611841 -0.0549353 -0.0560441 -0.0504826 -0.0549353 -0.0489408 -0.0504826 -0.0446661 -0.0489408 -0.0431211 -0.0446661 -0.0387481 -0.0431211 -0.0374456 -0.0387481 -0.0328632 -0.0374456 -0.0319028 -0.0328632 -0.0270951 -0.0319028 -0.0264737 -0.0270951 -0.0214725 -0.0264737 -0.0211271 -0.0214725 -0.0159845 -0.0211271 -0.0158284 -0.0159845 -0.0106003 -0.0158284 -0.0105499 -0.0106003 -0.00528383 -0.0105499 -0.00527549 -0.00528383 0 -0.00527549 0 0 0.00528383 0 0.00527549 0.00528383 0.0106003 0.00527549 0.0105499 0.0106003 0.0159845 0.0105499 0.0158284 0.0159845 0.0214725 0.0158284 0.0211271 0.0214725 0.0270951 0.0211271 0.0264737 0.0270951 0.0328632 0.0264737 0.0319028 0.0328632 0.0387481 0.0319028 0.0374456 0.0387481 0.0446661 0.0374456 0.0431211 0.0446661 0.0504826 0.0431211 0.0489408 0.0504826 0.0560441 0.0489408 0.0549353 0.0560441 0.0612169 0.0549353 0.0611841 0.0612169 0.0658616 0.0611841 0.0677816 0.0658616 0.0696578 0.0677816 0.0746197 0.0696578 0.0715356 0.0746197 0.0810082 0.0715356 0.0677103 0.0810082 0.0836033 0.0677103 0.0512152 0.0836033 0.0708615 0.0512152 0.0291732 0.0708615 0.0395386 0.0291732 0.0352178 0.0395386 0.0346231 0.0352178 0.039768 0.0346231 0.0277337 0.039768 0.015847 0.0277337 -0.00565634 0.015847 -0.00167665 -0.00565634 -0.0192183 -0.00167665 -0.00581587 -0.0192183 -0.0163909 -0.00581587 -0.00383986 -0.0163909 -0.00880968 -0.00383986 6.97807e-17 -0.00880968 6.20439e-17 6.20439e