# vtk DataFile Version 3.0
#This file was generated by the deal.II library on 2017/9/27 at 13:19:18
ASCII
DATASET UNSTRUCTURED_GRID

POINTS 2688 double
-5.63207 0 0
-5.3974 0 0
-5.63207 0.0714286 0
-5.3974 0.0714286 0
-5.3974 0 0
-5.16273 0 0
-5.3974 0.0714286 0
-5.16273 0.0714286 0
-5.16273 0 0
-4.92806 0 0
-5.16273 0.0714286 0
-4.92806 0.0714286 0
-4.92806 0 0
-4.69339 0 0
-4.92806 0.0714286 0
-4.69339 0.0714286 0
-4.69339 0 0
-4.45872 0 0
-4.69339 0.0714286 0
-4.45872 0.0714286 0
-4.45872 0 0
-4.22405 0 0
-4.45872 0.0714286 0
-4.22405 0.0714286 0
-4.22405 0 0
-3.98938 0 0
-4.22405 0.0714286 0
-3.98938 0.0714286 0
-3.98938 0 0
-3.75472 0 0
-3.98938 0.0714286 0
-3.75472 0.0714286 0
-3.75472 0 0
-3.52005 0 0
-3.75472 0.0714286 0
-3.52005 0.0714286 0
-3.52005 0 0
-3.28538 0 0
-3.52005 0.0714286 0
-3.28538 0.0714286 0
-3.28538 0 0
-3.05071 0 0
-3.28538 0.0714286 0
-3.05071 0.0714286 0
-3.05071 0 0
-2.81604 0 0
-3.05071 0.0714286 0
-2.81604 0.0714286 0
-2.81604 0 0
-2.58137 0 0
-2.81604 0.0714286 0
-2.58137 0.0714286 0
-2.58137 0 0
-2.3467 0 0
-2.58137 0.0714286 0
-2.3467 0.0714286 0
-2.3467 0 0
-2.11203 0 0
-2.3467 0.0714286 0
-2.11203 0.0714286 0
-2.11203 0 0
-1.87736 0 0
-2.11203 0.0714286 0
-1.87736 0.0714286 0
-1.87736 0 0
-1.64269 0 0
-1.87736 0.0714286 0
-1.64269 0.0714286 0
-1.64269 0 0
-1.40802 0 0
-1.64269 0.0714286 0
-1.40802 0.0714286 0
-1.40802 0 0
-1.17335 0 0
-1.40802 0.0714286 0
-1.17335 0.0714286 0
-1.17335 0 0
-0.938679 0 0
-1.17335 0.0714286 0
-0.938679 0.0714286 0
-0.938679 0 0
-0.704009 0 0
-0.938679 0.0714286 0
-0.704009 0.0714286 0
-0.704009 0 0
-0.469339 0 0
-0.704009 0.0714286 0
-0.469339 0.0714286 0
-0.469339 0 0
-0.23467 0 0
-0.469339 0.0714286 0
-0.23467 0.0714286 0
-0.23467 0 0
0 0 0
-0.23467 0.0714286 0
0 0.0714286 0
0 0 0
0.23467 0 0
0 0.0714286 0
0.23467 0.0714286 0
0.23467 0 0
0.469339 0 0
0.23467 0.0714286 0
0.469339 0.0714286 0
0.469339 0 0
0.704009 0 0
0.469339 0.0714286 0
0.704009 0.0714286 0
0.704009 0 0
0.938679 0 0
0.704009 0.0714286 0
0.938679 0.0714286 0
0.938679 0 0
1.17335 0 0
0.938679 0.0714286 0
1.17335 0.0714286 0
1.17335 0 0
1.40802 0 0
1.17335 0.0714286 0
1.40802 0.0714286 0
1.40802 0 0
1.64269 0 0
1.40802 0.0714286 0
1.64269 0.0714286 0
1.64269 0 0
1.87736 0 0
1.64269 0.0714286 0
1.87736 0.0714286 0
1.87736 0 0
2.11203 0 0
1.87736 0.0714286 0
2.11203 0.0714286 0
2.11203 0 0
2.3467 0 0
2.11203 0.0714286 0
2.3467 0.0714286 0
2.3467 0 0
2.58137 0 0
2.3467 0.0714286 0
2.58137 0.0714286 0
2.58137 0 0
2.81604 0 0
2.58137 0.0714286 0
2.81604 0.0714286 0
2.81604 0 0
3.05071 0 0
2.81604 0.0714286 0
3.05071 0.0714286 0
3.05071 0 0
3.28538 0 0
3.05071 0.0714286 0
3.28538 0.0714286 0
3.28538 0 0
3.52005 0 0
3.28538 0.0714286 0
3.52005 0.0714286 0
3.52005 0 0
3.75472 0 0
3.52005 0.0714286 0
3.75472 0.0714286 0
3.75472 0 0
3.98938 0 0
3.75472 0.0714286 0
3.98938 0.0714286 0
3.98938 0 0
4.22405 0 0
3.98938 0.0714286 0
4.22405 0.0714286 0
4.22405 0 0
4.45872 0 0
4.22405 0.0714286 0
4.45872 0.0714286 0
4.45872 0 0
4.69339 0 0
4.45872 0.0714286 0
4.69339 0.0714286 0
4.69339 0 0
4.92806 0 0
4.69339 0.0714286 0
4.92806 0.0714286 0
4.92806 0 0
5.16273 0 0
4.92806 0.0714286 0
5.16273 0.0714286 0
5.16273 0 0
5.3974 0 0
5.16273 0.0714286 0
5.3974 0.0714286 0
5.3974 0 0
5.63207 0 0
5.3974 0.0714286 0
5.63207 0.0714286 0
-5.63207 0.0714286 0
-5.3974 0.0714286 0
-5.63207 0.142857 0
-5.3974 0.142857 0
-5.3974 0.0714286 0
-5.16273 0.0714286 0
-5.3974 0.142857 0
-5.16273 0.142857 0
-5.16273 0.0714286 0
-4.92806 0.0714286 0
-5.16273 0.142857 0
-4.92806 0.142857 0
-4.92806 0.0714286 0
-4.69339 0.0714286 0
-4.92806 0.142857 0
-4.69339 0.142857 0
-4.69339 0.0714286 0
-4.45872 0.0714286 0
-4.69339 0.142857 0
-4.45872 0.142857 0
-4.45872 0.0714286 0
-4.22405 0.0714286 0
-4.45872 0.142857 0
-4.22405 0.142857 0
-4.22405 0.0714286 0
-3.98938 0.0714286 0
-4.22405 0.142857 0
-3.98938 0.142857 0
-3.98938 0.0714286 0
-3.75472 0.0714286 0
-3.98938 0.142857 0
-3.75472 0.142857 0
-3.75472 0.0714286 0
-3.52005 0.0714286 0
-3.75472 0.142857 0
-3.52005 0.142857 0
-3.52005 0.0714286 0
-3.28538 0.0714286 0
-3.52005 0.142857 0
-3.28538 0.142857 0
-3.28538 0.0714286 0
-3.05071 0.0714286 0
-3.28538 0.142857 0
-3.05071 0.142857 0
-3.05071 0.0714286 0
-2.81604 0.0714286 0
-3.05071 0.142857 0
-2.81604 0.142857 0
-2.81604 0.0714286 0
-2.58137 0.0714286 0
-2.81604 0.142857 0
-2.58137 0.142857 0
-2.58137 0.0714286 0
-2.3467 0.0714286 0
-2.58137 0.142857 0
-2.3467 0.142857 0
-2.3467 0.0714286 0
-2.11203 0.0714286 0
-2.3467 0.142857 0
-2.11203 0.142857 0
-2.11203 0.0714286 0
-1.87736 0.0714286 0
-2.11203 0.142857 0
-1.87736 0.142857 0
-1.87736 0.0714286 0
-1.64269 0.0714286 0
-1.87736 0.142857 0
-1.64269 0.142857 0
-1.64269 0.0714286 0
-1.40802 0.0714286 0
-1.64269 0.142857 0
-1.40802 0.142857 0
-1.40802 0.0714286 0
-1.17335 0.0714286 0
-1.40802 0.142857 0
-1.17335 0.142857 0
-1.17335 0.0714286 0
-0.938679 0.0714286 0
-1.17335 0.142857 0
-0.938679 0.142857 0
-0.938679 0.0714286 0
-0.704009 0.0714286 0
-0.938679 0.142857 0
-0.704009 0.142857 0
-0.704009 0.0714286 0
-0.469339 0.0714286 0
-0.704009 0.142857 0
-0.469339 0.142857 0
-0.469339 0.0714286 0
-0.23467 0.0714286 0
-0.469339 0.142857 0
-0.23467 0.142857 0
-0.23467 0.0714286 0
0 0.0714286 0
-0.23467 0.142857 0
0 0.142857 0
0 0.0714286 0
0.23467 0.0714286 0
0 0.142857 0
0.23467 0.142857 0
0.23467 0.0714286 0
0.469339 0.0714286 0
0.23467 0.142857 0
0.469339 0.142857 0
0.469339 0.0714286 0
0.704009 0.0714286 0
0.469339 0.142857 0
0.704009 0.142857 0
0.704009 0.0714286 0
0.938679 0.0714286 0
0.704009 0.142857 0
0.938679 0.142857 0
0.938679 0.0714286 0
1.17335 0.0714286 0
0.938679 0.142857 0
1.17335 0.142857 0
1.17335 0.0714286 0
1.40802 0.0714286 0
1.17335 0.142857 0
1.40802 0.142857 0
1.40802 0.0714286 0
1.64269 0.0714286 0
1.40802 0.142857 0
1.64269 0.142857 0
1.64269 0.0714286 0
1.87736 0.0714286 0
1.64269 0.142857 0
1.87736 0.142857 0
1.87736 0.0714286 0
2.11203 0.0714286 0
1.87736 0.142857 0
2.11203 0.142857 0
2.11203 0.0714286 0
2.3467 0.0714286 0
2.11203 0.142857 0
2.3467 0.142857 0
2.3467 0.0714286 0
2.58137 0.0714286 0
2.3467 0.142857 0
2.58137 0.142857 0
2.58137 0.0714286 0
2.81604 0.0714286 0
2.58137 0.142857 0
2.81604 0.142857 0
2.81604 0.0714286 0
3.05071 0.0714286 0
2.81604 0.142857 0
3.05071 0.142857 0
3.05071 0.0714286 0
3.28538 0.0714286 0
3.05071 0.142857 0
3.28538 0.142857 0
3.28538 0.0714286 0
3.52005 0.0714286 0
3.28538 0.142857 0
3.52005 0.142857 0
3.52005 0.0714286 0
3.75472 0.0714286 0
3.52005 0.142857 0
3.75472 0.142857 0
3.75472 0.0714286 0
3.98938 0.0714286 0
3.75472 0.142857 0
3.98938 0.142857 0
3.98938 0.0714286 0
4.22405 0.0714286 0
3.98938 0.142857 0
4.22405 0.142857 0
4.22405 0.0714286 0
4.45872 0.0714286 0
4.22405 0.142857 0
4.45872 0.142857 0
4.45872 0.0714286 0
4.69339 0.0714286 0
4.45872 0.142857 0
4.69339 0.142857 0
4.69339 0.0714286 0
4.92806 0.0714286 0
4.69339 0.142857 0
4.92806 0.142857 0
4.92806 0.0714286 0
5.16273 0.0714286 0
4.92806 0.142857 0
5.16273 0.142857 0
5.16273 0.0714286 0
5.3974 0.0714286 0
5.16273 0.142857 0
5.3974 0.142857 0
5.3974 0.0714286 0
5.63207 0.0714286 0
5.3974 0.142857 0
5.63207 0.142857 0
-5.63207 0.142857 0
-5.3974 0.142857 0
-5.63207 0.214286 0
-5.3974 0.214286 0
-5.3974 0.142857 0
-5.16273 0.142857 0
-5.3974 0.214286 0
-5.16273 0.214286 0
-5.16273 0.142857 0
-4.92806 0.142857 0
-5.16273 0.214286 0
-4.92806 0.214286 0
-4.92806 0.142857 0
-4.69339 0.142857 0
-4.92806 0.214286 0
-4.69339 0.214286 0
-4.69339 0.142857 0
-4.45872 0.142857 0
-4.69339 0.214286 0
-4.45872 0.214286 0
-4.45872 0.142857 0
-4.22405 0.142857 0
-4.45872 0.214286 0
-4.22405 0.214286 0
-4.22405 0.142857 0
-3.98938 0.142857 0
-4.22405 0.214286 0
-3.98938 0.214286 0
-3.98938 0.142857 0
-3.75472 0.142857 0
-3.98938 0.214286 0
-3.75472 0.214286 0
-3.75472 0.142857 0
-3.52005 0.142857 0
-3.75472 0.214286 0
-3.52005 0.214286 0
-3.52005 0.142857 0
-3.28538 0.142857 0
-3.52005 0.214286 0
-3.28538 0.214286 0
-3.28538 0.142857 0
-3.05071 0.142857 0
-3.28538 0.214286 0
-3.05071 0.214286 0
-3.05071 0.142857 0
-2.81604 0.142857 0
-3.05071 0.214286 0
-2.81604 0.214286 0
-2.81604 0.142857 0
-2.58137 0.142857 0
-2.81604 0.214286 0
-2.58137 0.214286 0
-2.58137 0.142857 0
-2.3467 0.142857 0
-2.58137 0.214286 0
-2.3467 0.214286 0
-2.3467 0.142857 0
-2.11203 0.142857 0
-2.3467 0.214286 0
-2.11203 0.214286 0
-2.11203 0.142857 0
-1.87736 0.142857 0
-2.11203 0.214286 0
-1.87736 0.214286 0
-1.87736 0.142857 0
-1.64269 0.142857 0
-1.87736 0.214286 0
-1.64269 0.214286 0
-1.64269 0.142857 0
-1.40802 0.142857 0
-1.64269 0.214286 0
-1.40802 0.214286 0
-1.40802 0.142857 0
-1.17335 0.142857 0
-1.40802 0.214286 0
-1.17335 0.214286 0
-1.17335 0.142857 0
-0.938679 0.142857 0
-1.17335 0.214286 0
-0.938679 0.214286 0
-0.938679 0.142857 0
-0.704009 0.142857 0
-0.938679 0.214286 0
-0.704009 0.214286 0
-0.704009 0.142857 0
-0.469339 0.142857 0
-0.704009 0.214286 0
-0.469339 0.214286 0
-0.469339 0.142857 0
-0.23467 0.142857 0
-0.469339 0.214286 0
-0.23467 0.214286 0
-0.23467 0.142857 0
0 0.142857 0
-0.23467 0.214286 0
0 0.214286 0
0 0.142857 0
0.23467 0.142857 0
0 0.214286 0
0.23467 0.214286 0
0.23467 0.142857 0
0.469339 0.142857 0
0.23467 0.214286 0
0.469339 0.214286 0
0.469339 0.142857 0
0.704009 0.142857 0
0.469339 0.214286 0
0.704009 0.214286 0
0.704009 0.142857 0
0.938679 0.142857 0
0.704009 0.214286 0
0.938679 0.214286 0
0.938679 0.142857 0
1.17335 0.142857 0
0.938679 0.214286 0
1.17335 0.214286 0
1.17335 0.142857 0
1.40802 0.142857 0
1.17335 0.214286 0
1.40802 0.214286 0
1.40802 0.142857 0
1.64269 0.142857 0
1.40802 0.214286 0
1.64269 0.214286 0
1.64269 0.142857 0
1.87736 0.142857 0
1.64269 0.214286 0
1.87736 0.214286 0
1.87736 0.142857 0
2.11203 0.142857 0
1.87736 0.214286 0
2.11203 0.214286 0
2.11203 0.142857 0
2.3467 0.142857 0
2.11203 0.214286 0
2.3467 0.214286 0
2.3467 0.142857 0
2.58137 0.142857 0
2.3467 0.214286 0
2.58137 0.214286 0
2.58137 0.142857 0
2.81604 0.142857 0
2.58137 0.214286 0
2.81604 0.214286 0
2.81604 0.142857 0
3.05071 0.142857 0
2.81604 0.214286 0
[...]
POINT_DATA 2688
SCALARS x1_displacement double 1
LOOKUP_TABLE default
1.54868e-16 -0.0339459 1.31144e-16 -0.0332225 -0.0339459 -0.0669351 -0.0332225 -0.0657055 -0.0669351 -0.0958515 -0.0657055 -0.0945349 -0.0958515 -0.113697 -0.0945349 -0.112751 -0.113697 -0.110423 -0.112751 -0.110017 -0.110423 -0.0833609 -0.110017 -0.0833001 -0.0833609 -0.0546142 -0.0833001 -0.0549099 -0.0546142 -0.0471248 -0.0549099 -0.0480179 -0.0471248 -0.0586979 -0.0480179 -0.0600822 -0.0586979 -0.0784687 -0.0600822 -0.079957 -0.0784687 -0.0979683 -0.079957 -0.0992208 -0.0979683 -0.112578 -0.0992208 -0.113453 -0.112578 -0.120544 -0.113453 -0.121057 -0.120544 -0.121862 -0.121057 -0.122096 -0.121862 -0.117456 -0.122096 -0.117504 -0.117456 -0.108657 -0.117504 -0.108598 -0.108657 -0.0968701 -0.108598 -0.0967627 -0.0968701 -0.0833473 -0.0967627 -0.0832296 -0.0833473 -0.0690615 -0.0832296 -0.0689557 -0.0690615 -0.0546649 -0.0689557 -0.0545809 -0.0546649 -0.0405137 -0.0545809 -0.040454 -0.0405137 -0.02673 -0.040454 -0.0266926 -0.02673 -0.0132721 -0.0266926 -0.0132544 -0.0132721 0 -0.0132544 0 0 0.0132721 0 0.0132544 0.0132721 0.02673 0.0132544 0.0266926 0.02673 0.0405137 0.0266926 0.040454 0.0405137 0.0546649 0.040454 0.0545809 0.0546649 0.0690615 0.0545809 0.0689557 0.0690615 0.0833473 0.0689557 0.0832296 0.0833473 0.0968701 0.0832296 0.0967627 0.0968701 0.108657 0.0967627 0.108598 0.108657 0.117456 0.108598 0.117504 0.117456 0.121862 0.117504 0.122096 0.121862 0.120544 0.122096 0.121057 0.120544 0.112578 0.121057 0.113453 0.112578 0.0979683 0.113453 0.0992208 0.0979683 0.0784687 0.0992208 0.079957 0.0784687 0.0586979 0.079957 0.0600822 0.0586979 0.0471248 0.0600822 0.0480179 0.0471248 0.0546142 0.0480179 0.0549099 0.0546142 0.0833609 0.0549099 0.0833001 0.0833609 0.110423 0.0833001 0.110017 0.110423 0.113697 0.110017 0.112751 0.113697 0.0958515 0.112751 0.0945349 0.0958515 0.0669351 0.0945349 0.0657055 0.0669351 0.0339459 0.0657055 0.0332225 0.0339459 1.54868e-16 0.0332225 1.31144e-16 1.31144e-16 -0.0332225 9.41518e-17 -0.0311322 -0.0332225 -0.0657055 -0.0311322 -0.0621139 -0.0657055 -0.0945349 -0.0621139 -0.090641 -0.0945349 -0.112751 -0.090641 -0.109965 -0.112751 -0.110017 -0.109965 -0.108912 -0.110017 -0.0833001 -0.108912 -0.0831366 -0.0833001 -0.0549099 -0.0831366 -0.0556991 -0.0549099 -0.0480179 -0.0556991 -0.0506153 -0.0480179 -0.0600822 -0.0506153 -0.0641011 -0.0600822 -0.079957 -0.0641011 -0.0841982 -0.079957 -0.0992208 -0.0841982 -0.102725 -0.0992208 -0.113453 -0.102725 -0.115864 -0.113453 -0.121057 -0.115864 -0.122449 -0.121057 -0.122096 -0.122449 -0.122716 -0.122096 -0.117504 -0.122716 -0.117615 -0.117504 -0.108598 -0.117615 -0.108419 -0.108598 -0.0967627 -0.108419 -0.0964542 -0.0967627 -0.0832296 -0.0964542 -0.0828969 -0.0832296 -0.0689557 -0.0828969 -0.0686588 -0.0689557 -0.0545809 -0.0686588 -0.0543467 -0.0545809 -0.040454 -0.0543467 -0.0402879 -0.040454 -0.0266926 -0.0402879 -0.0265892 -0.0266926 -0.0132544 -0.0265892 -0.0132054 -0.0132544 0 -0.0132054 0 0 0.0132544 0 0.0132054 0.0132544 0.0266926 0.0132054 0.0265892 0.0266926 0.040454 0.0265892 0.0402879 0.040454 0.0545809 0.0402879 0.0543467 0.0545809 0.0689557 0.0543467 0.0686588 0.0689557 0.0832296 0.0686588 0.0828969 0.0832296 0.0967627 0.0828969 0.0964542 0.0967627 0.108598 0.0964542 0.108419 0.108598 0.117504 0.108419 0.117615 0.117504 0.122096 0.117615 0.122716 0.122096 0.121057 0.122716 0.122449 0.121057 0.113453 0.122449 0.115864 0.113453 0.0992208 0.115864 0.102725 0.0992208 0.079957 0.102725 0.0841982 0.079957 0.0600822 0.0841982 0.0641011 0.0600822 0.0480179 0.0641011 0.0506153 0.0480179 0.0549099 0.0506153 0.0556991 0.0549099 0.0833001 0.0556991 0.0831366 0.0833001 0.110017 0.0831366 0.108912 0.110017 0.112751 0.108912 0.109965 0.112751 0.0945349 0.109965 0.090641 0.0945349 0.0657055 0.090641 0.0621139 0.0657055 0.0332225 0.0621139 0.0311322 0.0332225 1.31144e-16 0.0311322 9.41518e-17 9.41518e-17 -0.0311322 7.96118e-17 -0.0277887 -0.0311322 -0.0621139 -0.0277887 -0.0562957 -0.0621139 -0.090641 -0.0562957 -0.0842324 -0.090641 -0.109965 -0.0842324 -0.10535 -0.109965 -0.108912 -0.10535 -0.107157 -0.108912 -0.0831366 -0.107157 -0.0828859 -0.0831366 -0.0556991 -0.0828859 -0.0569481 -0.0556991 -0.0506153 -0.0569481 -0.0548875 -0.0506153 -0.0641011 -0.0548875 -0.0706227 -0.0641011 -0.0841982 -0.0706227 -0.0909253 -0.0841982 -0.102725 -0.0909253 -0.108168 -0.102725 -0.115864 -0.108168 -0.119549 -0.115864 -0.122449 -0.119549 -0.124549 -0.122449 -0.122716 -0.124549 -0.123633 -0.122716 -0.117615 -0.123633 -0.117758 -0.117615 -0.108419 -0.117758 -0.108125 -0.108419 -0.0964542 -0.108125 -0.095967 -0.0964542 -0.0828969 -0.095967 -0.0823776 -0.0828969 -0.0686588 -0.0823776 -0.0681984 -0.0686588 -0.0543467 -0.0681984 -0.0539852 -0.0543467 -0.0402879 -0.0539852 -0.0400326 -0.0402879 -0.0265892 -0.0400326 -0.0264307 -0.0265892 -0.0132054 -0.0264307 -0.0131306 -0.0132054 0 -0.0131306 0 0 0.0132054 0 0.0131306 0.0132054 0.0265892 0.0131306 0.0264307 0.0265892 0.0402879 0.0264307 0.0400326 0.0402879 0.0543467 0.0400326 0.0539852 0.0543467 0.0686588 0.0539852 0.0681984 0.0686588 0.0828969 0.0681984 0.0823776 0.0828969 0.0964542 0.0823776 0.095967 0.0964542 0.108419 0.095967 0.108125 0.108419 0.117615 0.108125 0.117758 0.117615 0.122716 0.117758 0.123633 0.122716 0.122449 0.123633 0.124549 0.122449 0.115864 0.124549 0.119549 0.115864 0.102725 0.119549 0.108168 0.102725 0.0841982 0.108168 0.0909253 0.0841982 0.0641011 0.0909253 0.0706227 0.0641011 0.0506153 0.0706227 0.0548875 0.0506153 0.0556991 0.0548875 0.0569481 0.0556991 0.0831366 0.0569481 0.0828859 0.0831366 0.108912 0.0828859 0.107157 0.108912 0.109965 0.107157 0.10535 0.109965 0.090641 0.10535 0.0842324 0.090641 0.0621139 0.0842324 0.0562957 0.0621139 0.0311322 0.0562957 0.0277887 0.0311322 9.41518e-17 0.0277887 7.96118e-17 7.96118e-17 -0.0277887 7.8145e-17 -0.0232769 -0.0277887 -0.0562957 -0.0232769 -0.0482884 -0.0562957 -0.0842324 -0.0482884 -0.0751613 -0.0842324 -0.10535 -0.0751613 -0.0986492 -0.10535 -0.107157 -0.0986492 -0.104636 -0.107157 -0.0828859 -0.104636 -0.0825568 -0.0828859 -0.0569481 -0.0825568 -0.0587695 -0.0569481 -0.0548875 -0.0587695 -0.0610511 -0.0548875 -0.0706227 -0.0610511 -0.0797054 -0.0706227 -0.0909253 -0.0797054 -0.0999508 -0.0909253 -0.108168 -0.0999508 -0.115247 -0.108168 -0.119549 -0.115247 -0.124231 -0.119549 -0.124549 -0.124231 -0.127159 -0.124549 -0.123633 -0.127159 -0.124728 -0.123633 -0.117758 -0.124728 -0.117876 -0.117758 -0.108125 -0.117876 -0.107699 -0.108125 -0.095967 -0.107699 -0.0953101 -0.095967 -0.0823776 -0.0953101 -0.0816924 -0.0823776 -0.0681984 -0.0816924 -0.0675985 -0.0681984 -0.0539852 -0.0675985 -0.0535187 -0.0539852 -0.0400326 -0.0535187 -0.0397057 -0.0400326 -0.0264307 -0.0397057 -0.0262292 -0.0264307 -0.0131306 -0.0262292 -0.0130358 -0.0131306 0 -0.0130358 0 0 0.0131306 0 0.0130358 0.0131306 0.0264307 0.0130358 0.0262292 0.0264307 0.0400326 0.0262292 0.0397057 0.0400326 0.0539852 0.0397057 0.0535187 0.0539852 0.0681984 0.0535187 0.0675985 0.0681984 0.0823776 0.0675985 0.0816924 0.0823776 0.095967 0.0816924 0.0953101 0.095967 0.108125 0.0953101 0.107699 0.108125 0.117758 0.107699 0.117876 0.117758 0.123633 0.117876 0.124728 0.123633 0.124549 0.124728 0.127159 0.124549 0.119549 0.127159 0.124231 0.119549 0.108168 0.124231 0.115247 0.108168 0.0909253 0.115247 0.0999508 0.0909253 0.0706227 0.0999508 0.0797054 0.0706227 0.0548875 0.0797054 0.0610511 0.0548875 0.0569481 0.0610511 0.0587695 0.0569481 0.0828859 0.0587695 0.0825568 0.0828859 0.107157 0.0825568 0.104636 0.107157 0.10535 0.104636 0.0986492 0.10535 0.0842324 0.0986492 0.0751613 0.0842324 0.0562957 0.0751613 0.0482884 0.0562957 0.0277887 0.0482884 0.0232769 0.0277887 7.96118e-17 0.0232769 7.8145e-17 7.8145e-17 -0.0232769 7.44745e-17 -0.0176877 -0.0232769 -0.0482884 -0.0176877 -0.0380944 -0.0482884 -0.0751613 -0.0380944 -0.0631206 -0.0751613 -0.0986492 -0.0631206 -0.0893427 -0.0986492 -0.104636 -0.0893427 -0.101063 -0.104636 -0.0825568 -0.101063 -0.0821531 -0.0825568 -0.0587695 -0.0821531 -0.0614319 -0.0587695 -0.0610511 -0.0614319 -0.0695753 -0.0610511 -0.0797054 -0.0695753 -0.0915629 -0.0797054 -0.0999508 -0.0915629 -0.111122 -0.0999508 -0.115247 -0.111122 -0.123649 -0.115247 -0.124231 -0.123649 -0.129612 -0.124231 -0.127159 -0.129612 -0.130061 -0.127159 -0.124728 -0.130061 -0.125865 -0.124728 -0.117876 -0.125865 -0.117896 -0.117876 -0.107699 -0.117896 -0.107113 -0.107699 -0.0953101 -0.107113 -0.094483 -0.0953101 -0.0816924 -0.094483 -0.0808565 -0.0816924 -0.0675985 -0.0808565 -0.0668805 -0.0675985 -0.0535187 -0.0668805 -0.0529685 -0.0535187 -0.0397057 -0.0529685 -0.0393252 -0.0397057 -0.0262292 -0.0393252 -0.0259972 -0.0262292 -0.0130358 -0.0259972 -0.0129276 -0.0130358 0 -0.0129276 0 0 0.0130358 0 0.0129276 0.0130358 0.0262292 0.0129276 0.0259972 0.0262292 0.0397057 0.0259972 0.0393252 0.0397057 0.0535187 0.0393252 0.0529685 0.0535187 0.0675985 0.0529685 0.0668805 0.0675985 0.0816924 0.0668805 0.0808565 0.0816924 0.0953101 0.0808565 0.094483 0.0953101 0.107699 0.094483 0.107113 0.107699 0.117876 0.107113 0.117896 0.117876 0.124728 0.117896 0.125865 0.124728 0.127159 0.125865 0.130061 0.127159 0.124231 0.130061 0.129612 0.124231 0.115247 0.129612 0.123649 0.115247 0.0999508 0.123649 0.111122 0.0999508 0.0797054 0.111122 0.0915629 0.0797054 0.0610511 0.0915629 0.0695753 0.0610511 0.0587695 0.0695753 0.0614319 0.0587695 0.0825568 0.0614319 0.0821531 0.0825568 0.104636 0.0821531 0.101063 0.104636 0.0986492 0.101063 0.0893427 0.0986492 0.0751613 0.0893427 0.0631206 0.0751613 0.0482884 0.0631206 0.0380944 0.0482884 0.0232769 0.0380944 0.0176877 0.0232769 7.8145e-17 0.0176877 7.44745e-17 7.44745e-17 -0.0176877 6.98574e-17 -0.0111513 -0.0176877 -0.0380944 -0.0111513 -0.0257591 -0.0380944 -0.0631206 -0.0257591 -0.0477118 -0.0631206 -0.0893427 -0.0477118 -0.0766215 -0.0893427 -0.101063 -0.0766215 -0.0959328 -0.101063 -0.0821531 -0.0959328 -0.0816756 -0.0821531 -0.0614319 -0.0816756 -0.065413 -0.0614319 -0.0695753 -0.065413 -0.0812147 -0.0695753 -0.0915629 -0.0812147 -0.106512 -0.0915629 -0.111122 -0.106512 -0.12426 -0.111122 -0.123649 -0.12426 -0.13303 -0.123649 -0.129612 -0.13303 -0.135384 -0.129612 -0.130061 -0.135384 -0.13303 -0.130061 -0.125865 -0.13303 -0.126896 -0.125865 -0.117896 -0.126896 -0.117734 -0.117896 -0.107113 -0.117734 -0.106331 -0.107113 -0.094483 -0.106331 -0.0934792 -0.094483 -0.0808565 -0.0934792 -0.0798812 -0.0808565 -0.0668805 -0.0798812 -0.066064 -0.0668805 -0.0529685 -0.066064 -0.0523557 -0.0529685 -0.0393252 -0.0523557 -0.0389092 -0.0393252 -0.0259972 -0.0389092 -0.0257477 -0.0259972 -0.0129276 -0.0257477 -0.0128125 -0.0129276 0 -0.0128125 0 0 0.0129276 0 0.0128125 0.0129276 0.0259972 0.0128125 0.0257477 0.0259972 0.0393252 0.0257477 0.0389092 0.0393252 0.0529685 0.0389092 0.0523557 0.0529685 0.0668805 0.0523557 0.066064 0.0668805 0.0808565 0.066064 0.0798812 0.0808565 0.094483 0.0798812 0.0934792 0.094483 0.107113 0.0934792 0.106331 0.107113 0.117896 0.106331 0.117734 0.117896 0.125865 0.117734 0.126896 0.125865 0.130061 0.126896 0.13303 0.130061 0.129612 0.13303 0.135384 0.129612 0.123649 0.135384 0.13303 0.123649 0.111122 0.13303 0.12426 0.111122 0.0915629 0.12426 0.106512 0.0915629 0.0695753 0.106512 0.0812147 0.0695753 0.0614319 0.0812147 0.065413 0.0614319 0.0821531 0.065413 0.0816756 0.0821531 0.101063 0.0816756 0.0959328 0.101063 0.0893427 0.0959328 0.0766215 0.0893427 0.0631206 0.0766215 0.0477118 0.0631206 0.0380944 0.0477118 0.0257591 0.0380944 0.0176877 0.0257591 0.0111513 0.0176877 7.44745e-17 0.0111513 6.98574e-17 6.98574e-17 -0.0111513 6.4477e-17 -0.00385627 -0.0111513 -0.0257591 -0.00385627 -0.0114562 -0.0257591 -0.0477118 -0.0114562 -0.0285494 -0.0477118 -0.0766215 -0.0285494 -0.0593424 -0.0766215 -0.0959328 -0.0593424 -0.088407 -0.0959328 -0.0816756 -0.088407 -0.0811221 -0.0816756 -0.065413 -0.0811221 -0.0715129 -0.065413 -0.0812147 -0.0715129 -0.0970711 -0.0812147 -0.106512 -0.0970711 -0.124885 -0.106512 -0.12426 -0.124885 -0.139079 -0.12426 -0.13303 -0.139079 -0.142995 -0.13303 -0.135384 -0.142995 -0.141226 -0.135384 -0.13303 -0.141226 -0.135833 -0.13303 -0.126896 -0.135833 -0.127668 -0.126896 -0.117734 -0.127668 -0.117301 -0.117734 -0.106331 -0.117301 -0.105309 -0.106331 -0.0934792 -0.105309 -0.0922894 -0.0934792 -0.0798812 -0.0922894 -0.0787768 -0.0798812 -0.066064 -0.0787768 -0.0651684 -0.066064 -0.0523557 -0.0651684 -0.0517018 -0.0523557 -0.0389092 -0.0517018 -0.0384765 -0.0389092 -0.0257477 -0.0384765 -0.0254941 -0.0257477 -0.0128125 -0.0254941 -0.0126976 -0.0128125 0 -0.0126976 0 0 0.0128125 0 0.0126976 0.0128125 0.0257477 0.0126976 0.0254941 0.0257477 0.0389092 0.0254941 0.0384765 0.0389092 0.0523557 0.0384765 0.0517018 0.0523557 0.066064 0.0517018 0.0651684 0.066064 0.0798812 0.0651684 0.0787768 0.0798812 0.0934792 0.0787768 0.0922894 0.0934792 0.106331 0.0922894 0.105309 0.106331 0.117734 0.105309 0.117301 0.117734 0.126896 0.117301 0.127668 0.126896 0.13303 0.127668 0.135833 0.13303 0.135384 0.135833 0.141226 0.135384 0.13303 0.141226 0.142995 0.13303 0.12426 0.142995 0.139079 0.12426 0.106512 0.139079 0.124885 0.106512 0.0812147 0.124885 0.0970711 0.0812147 0.065413 0.0970711 0.0715129 0.065413 0.0816756 0.0715129 0.0811221 0.0816756 0.0959328 0.0811221 0.088407 0.0959328 0.0766215 0.088407 0.0593424 0.0766215 0.0477118 0.0593424 0.0285494 0.0477118 0.0257591 0.0285494 0.0114562 0.0257591 0.0111513 0.0114562 0.00385627 0.0111513 6.98574e-17 0.00385627 6.4477e-17 6.4477e-17 -0.00385627 5.95605e-17 0.00395477 -0.00385627 -0.0114562 0.00395477 0.00443003 -0.0114562 -0.0285494 0.00443003 -0.00544682 -0.0285494 -0.0593424 -0.00544682 -0.0359817 -0.0593424 -0.088407 -0.0359817 -0.0771122 -0.088407 -0.0811221 -0.0771122 -0.0804854 -0.0811221 -0.0715129 -0.0804854 -0.0810679 -0.0715129 -0.0970711 -0.0810679 -0.118663 -0.0970711 -0.124885 -0.118663 -0.146856 -0.124885 -0.139079 -0.146856 -0.155112 -0.139079 -0.142995 -0.155112 -0.153107 -0.142995 -0.141226 -0.153107 -0.146814 -0.141226 -0.135833 -0.146814 -0.138238 -0.135833 -0.127668 -0.138238 -0.128027 -0.127668 -0.117301 -0.128027 -0.116506 -0.117301 -0.105309 -0.116506 -0.104006 -0.105309 -0.0922894 -0.104006 -0.0909041 -0.0922894 -0.0787768 -0.0909041 -0.0775538 -0.0787768 -0.0651684 -0.0775538 -0.064214 -0.0651684 -0.0517018 -0.064214 -0.051029 -0.0517018 -0.0384765 -0.051029 -0.0380465 -0.0384765 -0.0254941 -0.0380465 -0.0252503 -0.0254941 -0.0126976 -0.0252503 -0.01259 -0.0126976 0 -0.01259 0 0 0.0126976 0 0.01259 0.0126976 0.0254941 0.01259 0.0252503 0.0254941 0.0384765 0.0252503 0.0380465 0.0384765 0.0517018 0.0380465 0.051029 0.0517018 0.0651684 0.051029 0.064214 0.0651684 0.0787768 0.064214 0.0775538 0.0787768 0.0922894 0.0775538 0.0909041 0.0922894 0.105309 0.0909041 0.104006 0.105309 0.117301 0.104006 0.116506 0.117301 0.127668 0.116506 0.128027 0.127668 0.135833 0.128027 0.138238 0.135833 0.141226 0.138238 0.146814 0.141226 0.142995 0.146814 0.153107 0.142995 0.139079 0.153107 0.155112 0.139079 0.124885 0.155112 0.146856 0.124885 0.0970711 0.146856 0.118663 0.0970711 0.0715129 0.118663 0.0810679 0.0715129 0.0811221 0.0810679 0.0804854 0.0811221 0.088407 0.0804854 0.0771122 0.088407 0.0593424 0.0771122 0.0359817 0.0593424 0.0285494 0.0359817 0.00544682 0.0285494 0.0114562 0.00544682 -0.00443003 0.0114562 0.00385627 -0.00443003 -0.00395477 0.00385627 6.4477e-17 -0.00395477 5.95605e-17 5.95605e-17 0.00395477 5.75469e-17 0.0120197 0.00395477 0.00443003 0.0120197 0.0212784 0.00443003 -0.00544682 0.0212784 0.0212548 -0.00544682 -0.0359817 0.0212548 -0.00465848 -0.0359817 -0.0771122 -0.00465848 -0.0597283 -0.0771122 -0.0804854 -0.0597283 -0.079753 -0.0804854 -0.0810679 -0.079753 -0.0963777 -0.0810679 -0.118663 -0.0963777 -0.147936 -0.118663 -0.146856 -0.147936 -0.172112 -0.146856 -0.155112 -0.172112 -0.171664 -0.155112 -0.153107 -0.171664 -0.162912 -0.153107 -0.146814 -0.162912 -0.151826 -0.146814 -0.138238 -0.151826 -0.140015 -0.138238 -0.128027 -0.140015 -0.127823 -0.128027 -0.116506 -0.127823 -0.115261 -0.116506 -0.104006 -0.115261 -0.10238 -0.104006 -0.0909041 -0.10238 -0.0893161 -0.0909041 -0.0775538 -0.0893161 -0.0762253 -0.0775538 -0.064214 -0.0762253 -0.063223 -0.064214 -0.051029 -0.063223 -0.0503608 -0.051029 -0.0380465 -0.0503608 -0.0376393 -0.0380465 -0.0252503 -0.0376393 -0.0250306 -0.0252503 -0.01259 -0.0250306 -0.012497 -0.01259 0 -0.012497 0 0 0.01259 0 0.012497 0.01259 0.0252503 0.012497 0.0250306 0.0252503 0.0380465 0.0250306 0.0376393 0.0380465 0.051029 0.0376393 0.0503608 0.051029 0.064214 0.0503608 0.063223 0.064214 0.0775538 0.063223 0.0762253 0.0775538 0.0909041 0.0762253 0.0893161 0.0909041 0.104006 0.0893161 0.10238 0.104006 0.116506 0.10238 0.115261 0.116506 0.128027 0.115261 0.127823 0.128027 0.138238 0.127823 0.140015 0.138238 0.146814 0.140015 0.151826 0.146814 0.153107 0.151826 0.162912 0.153107 0.155112 0.162912 0.171664 0.155112 0.146856 0.171664 0.172112 0.146856 0.118663 0.172112 0.147936 0.118663 0.0810679 0.147936 0.0963777 0.0810679 0.0804854 0.0963777 0.079753 0.0804854 0.0771122 0.079753 0.0597283 0.0771122 0.0359817 0.0597283 0.00465848 0.0359817 0.00544682 0.00465848 -0.0212548 0.00544682 -0.00443003 -0.0212548 -0.0212784 -0.00443003 -0.00395477 -0.0212784 -0.0120197 -0.00395477 5.95605e-17 -0.0120197 5.75469e-17 5.75469e-17 0.0120197 5.35068e-17 0.0200869 0.0120197 0.0212784 0.0200869 0.0383627 0.0212784 0.0212548 0.0383627 0.0502089 0.0212548 -0.00465848 0.0502089 0.0364493 -0.00465848 -0.0597283 0.0364493 -0.0320338 -0.0597283 -0.079753 -0.0320338 -0.0789187 -0.079753 -0.0963777 -0.0789187 -0.121709 -0.0963777 -0.147936 -0.121709 -0.186893 -0.147936 -0.172112 -0.186893 -0.199346 -0.172112 -0.171664 -0.199346 -0.187934 -0.171664 -0.162912 -0.187934 -0.171971 -0.162912 -0.151826 -0.171971 -0.155941 -0.151826 -0.140015 -0.155941 -0.140946 -0.140015 -0.127823 -0.140946 -0.12691 -0.127823 -0.115261 -0.12691 -0.113483 -0.115261 -0.10238 -0.113483 -0.100397 -0.10238 -0.0893161 -0.100397 -0.087523 -0.0893161 -0.0762253 -0.087523 -0.0748081 -0.0762253 -0.063223 -0.0748081 -0.0622203 -0.063223 -0.0503608 -0.0622203 -0.0497226 -0.0503608 -0.0376393 -0.0497226 -0.037276 -0.0376393 -0.0250306 -0.037276 -0.0248496 -0.0250306 -0.012497 -0.0248496 -0.012426 -0.012497 0 -0.012426 0 0 0.012497 0 0.012426 0.012497 0.0250306 0.012426 0.0248496 0.0250306 0.0376393 0.0248496 0.037276 0.0376393 0.0503608 0.037276 0.0497226 0.0503608 0.063223 0.0497226 0.0622203 0.063223 0.0762253 0.0622203 0.0748081 0.0762253 0.0893161 0.0748081 0.087523 0.0893161 0.10238 0.087523 0.100397 0.10238 0.115261 0.100397 0.113483 0.115261 0.127823 0.113483 0.12691 0.127823 0.140015 0.12691 0.140946 0.140015 0.151826 0.140946 0.155941 0.151826 0.162912 0.155941 0.171971 0.162912 0.171664 0.171971 0.187934 0.171664 0.172112 0.187934 0.199346 0.172112 0.147936 0.199346 0.186893 0.147936 0.0963777 0.186893 0.121709 0.0963777 0.079753 0.121709 0.0789187 0.079753 0.0597283 0.0789187 0.0320338 0.0597283 0.00465848 0.0320338 -0.0364493 0.00465848 -0.0212548 -0.0364493 -0.0502089 -0.0212548 -0.0212784 -0.0502089 -0.0383627 -0.0212784 -0.0120197 -0.0383627 -0.0200869 -0.0120197 5.75469e-17 -0.0200869 5.35068e-17 5.35068e-17 0.0200869 4.76083e-17 0.0278737 0.0200869 0.0383627 0.0278737 0.055154 0.0383627 0.0502089 0.055154 0.0789904 0.0502089 0.0364493 0.0789904 0.0867994 0.0364493 -0.0320338 0.0867994 0.0148705 -0.0320338 -0.0789187 0.0148705 -0.0780361 -0.0789187 -0.121709 -0.0780361 -0.166256 -0.121709 -0.186893 -0.166256 -0.235231 -0.186893 -0.199346 -0.235231 -0.226129 -0.199346 -0.187934 -0.226129 -0.203304 -0.187934 -0.171971 -0.203304 -0.179827 -0.171971 -0.155941 -0.179827 -0.158858 -0.155941 -0.140946 -0.158858 -0.140818 -0.140946 -0.12691 -0.140818 -0.125152 -0.12691 -0.113483 -0.125152 -0.111096 -0.113483 -0.100397 -0.111096 -0.0980286 -0.100397 -0.087523 -0.0980286 -0.085529 -0.087523 -0.0748081 -0.085529 -0.0733245 -0.0748081 -0.0622203 -0.0733245 -0.0612349 -0.0622203 -0.0497226 -0.0612349 -0.0491419 -0.0497226 -0.037276 -0.0491