# vtk DataFile Version 3.0
#This file was generated by the deal.II library on 2017/9/27 at 13:17:56
ASCII
DATASET UNSTRUCTURED_GRID

POINTS 2688 double
-5.63207 0 0
-5.3974 0 0
-5.63207 0.0714286 0
-5.3974 0.0714286 0
-5.3974 0 0
-5.16273 0 0
-5.3974 0.0714286 0
-5.16273 0.0714286 0
-5.16273 0 0
-4.92806 0 0
-5.16273 0.0714286 0
-4.92806 0.0714286 0
-4.92806 0 0
-4.69339 0 0
-4.92806 0.0714286 0
-4.69339 0.0714286 0
-4.69339 0 0
-4.45872 0 0
-4.69339 0.0714286 0
-4.45872 0.0714286 0
-4.45872 0 0
-4.22405 0 0
-4.45872 0.0714286 0
-4.22405 0.0714286 0
-4.22405 0 0
-3.98938 0 0
-4.22405 0.0714286 0
-3.98938 0.0714286 0
-3.98938 0 0
-3.75472 0 0
-3.98938 0.0714286 0
-3.75472 0.0714286 0
-3.75472 0 0
-3.52005 0 0
-3.75472 0.0714286 0
-3.52005 0.0714286 0
-3.52005 0 0
-3.28538 0 0
-3.52005 0.0714286 0
-3.28538 0.0714286 0
-3.28538 0 0
-3.05071 0 0
-3.28538 0.0714286 0
-3.05071 0.0714286 0
-3.05071 0 0
-2.81604 0 0
-3.05071 0.0714286 0
-2.81604 0.0714286 0
-2.81604 0 0
-2.58137 0 0
-2.81604 0.0714286 0
-2.58137 0.0714286 0
-2.58137 0 0
-2.3467 0 0
-2.58137 0.0714286 0
-2.3467 0.0714286 0
-2.3467 0 0
-2.11203 0 0
-2.3467 0.0714286 0
-2.11203 0.0714286 0
-2.11203 0 0
-1.87736 0 0
-2.11203 0.0714286 0
-1.87736 0.0714286 0
-1.87736 0 0
-1.64269 0 0
-1.87736 0.0714286 0
-1.64269 0.0714286 0
-1.64269 0 0
-1.40802 0 0
-1.64269 0.0714286 0
-1.40802 0.0714286 0
-1.40802 0 0
-1.17335 0 0
-1.40802 0.0714286 0
-1.17335 0.0714286 0
-1.17335 0 0
-0.938679 0 0
-1.17335 0.0714286 0
-0.938679 0.0714286 0
-0.938679 0 0
-0.704009 0 0
-0.938679 0.0714286 0
-0.704009 0.0714286 0
-0.704009 0 0
-0.469339 0 0
-0.704009 0.0714286 0
-0.469339 0.0714286 0
-0.469339 0 0
-0.23467 0 0
-0.469339 0.0714286 0
-0.23467 0.0714286 0
-0.23467 0 0
0 0 0
-0.23467 0.0714286 0
0 0.0714286 0
0 0 0
0.23467 0 0
0 0.0714286 0
0.23467 0.0714286 0
0.23467 0 0
0.469339 0 0
0.23467 0.0714286 0
0.469339 0.0714286 0
0.469339 0 0
0.704009 0 0
0.469339 0.0714286 0
0.704009 0.0714286 0
0.704009 0 0
0.938679 0 0
0.704009 0.0714286 0
0.938679 0.0714286 0
0.938679 0 0
1.17335 0 0
0.938679 0.0714286 0
1.17335 0.0714286 0
1.17335 0 0
1.40802 0 0
1.17335 0.0714286 0
1.40802 0.0714286 0
1.40802 0 0
1.64269 0 0
1.40802 0.0714286 0
1.64269 0.0714286 0
1.64269 0 0
1.87736 0 0
1.64269 0.0714286 0
1.87736 0.0714286 0
1.87736 0 0
2.11203 0 0
1.87736 0.0714286 0
2.11203 0.0714286 0
2.11203 0 0
2.3467 0 0
2.11203 0.0714286 0
2.3467 0.0714286 0
2.3467 0 0
2.58137 0 0
2.3467 0.0714286 0
2.58137 0.0714286 0
2.58137 0 0
2.81604 0 0
2.58137 0.0714286 0
2.81604 0.0714286 0
2.81604 0 0
3.05071 0 0
2.81604 0.0714286 0
3.05071 0.0714286 0
3.05071 0 0
3.28538 0 0
3.05071 0.0714286 0
3.28538 0.0714286 0
3.28538 0 0
3.52005 0 0
3.28538 0.0714286 0
3.52005 0.0714286 0
3.52005 0 0
3.75472 0 0
3.52005 0.0714286 0
3.75472 0.0714286 0
3.75472 0 0
3.98938 0 0
3.75472 0.0714286 0
3.98938 0.0714286 0
3.98938 0 0
4.22405 0 0
3.98938 0.0714286 0
4.22405 0.0714286 0
4.22405 0 0
4.45872 0 0
4.22405 0.0714286 0
4.45872 0.0714286 0
4.45872 0 0
4.69339 0 0
4.45872 0.0714286 0
4.69339 0.0714286 0
4.69339 0 0
4.92806 0 0
4.69339 0.0714286 0
4.92806 0.0714286 0
4.92806 0 0
5.16273 0 0
4.92806 0.0714286 0
5.16273 0.0714286 0
5.16273 0 0
5.3974 0 0
5.16273 0.0714286 0
5.3974 0.0714286 0
5.3974 0 0
5.63207 0 0
5.3974 0.0714286 0
5.63207 0.0714286 0
-5.63207 0.0714286 0
-5.3974 0.0714286 0
-5.63207 0.142857 0
-5.3974 0.142857 0
-5.3974 0.0714286 0
-5.16273 0.0714286 0
-5.3974 0.142857 0
-5.16273 0.142857 0
-5.16273 0.0714286 0
-4.92806 0.0714286 0
-5.16273 0.142857 0
-4.92806 0.142857 0
-4.92806 0.0714286 0
-4.69339 0.0714286 0
-4.92806 0.142857 0
-4.69339 0.142857 0
-4.69339 0.0714286 0
-4.45872 0.0714286 0
-4.69339 0.142857 0
-4.45872 0.142857 0
-4.45872 0.0714286 0
-4.22405 0.0714286 0
-4.45872 0.142857 0
-4.22405 0.142857 0
-4.22405 0.0714286 0
-3.98938 0.0714286 0
-4.22405 0.142857 0
-3.98938 0.142857 0
-3.98938 0.0714286 0
-3.75472 0.0714286 0
-3.98938 0.142857 0
-3.75472 0.142857 0
-3.75472 0.0714286 0
-3.52005 0.0714286 0
-3.75472 0.142857 0
-3.52005 0.142857 0
-3.52005 0.0714286 0
-3.28538 0.0714286 0
-3.52005 0.142857 0
-3.28538 0.142857 0
-3.28538 0.0714286 0
-3.05071 0.0714286 0
-3.28538 0.142857 0
-3.05071 0.142857 0
-3.05071 0.0714286 0
-2.81604 0.0714286 0
-3.05071 0.142857 0
-2.81604 0.142857 0
-2.81604 0.0714286 0
-2.58137 0.0714286 0
-2.81604 0.142857 0
-2.58137 0.142857 0
-2.58137 0.0714286 0
-2.3467 0.0714286 0
-2.58137 0.142857 0
-2.3467 0.142857 0
-2.3467 0.0714286 0
-2.11203 0.0714286 0
-2.3467 0.142857 0
-2.11203 0.142857 0
-2.11203 0.0714286 0
-1.87736 0.0714286 0
-2.11203 0.142857 0
-1.87736 0.142857 0
-1.87736 0.0714286 0
-1.64269 0.0714286 0
-1.87736 0.142857 0
-1.64269 0.142857 0
-1.64269 0.0714286 0
-1.40802 0.0714286 0
-1.64269 0.142857 0
-1.40802 0.142857 0
-1.40802 0.0714286 0
-1.17335 0.0714286 0
-1.40802 0.142857 0
-1.17335 0.142857 0
-1.17335 0.0714286 0
-0.938679 0.0714286 0
-1.17335 0.142857 0
-0.938679 0.142857 0
-0.938679 0.0714286 0
-0.704009 0.0714286 0
-0.938679 0.142857 0
-0.704009 0.142857 0
-0.704009 0.0714286 0
-0.469339 0.0714286 0
-0.704009 0.142857 0
-0.469339 0.142857 0
-0.469339 0.0714286 0
-0.23467 0.0714286 0
-0.469339 0.142857 0
-0.23467 0.142857 0
-0.23467 0.0714286 0
0 0.0714286 0
-0.23467 0.142857 0
0 0.142857 0
0 0.0714286 0
0.23467 0.0714286 0
0 0.142857 0
0.23467 0.142857 0
0.23467 0.0714286 0
0.469339 0.0714286 0
0.23467 0.142857 0
0.469339 0.142857 0
0.469339 0.0714286 0
0.704009 0.0714286 0
0.469339 0.142857 0
0.704009 0.142857 0
0.704009 0.0714286 0
0.938679 0.0714286 0
0.704009 0.142857 0
0.938679 0.142857 0
0.938679 0.0714286 0
1.17335 0.0714286 0
0.938679 0.142857 0
1.17335 0.142857 0
1.17335 0.0714286 0
1.40802 0.0714286 0
1.17335 0.142857 0
1.40802 0.142857 0
1.40802 0.0714286 0
1.64269 0.0714286 0
1.40802 0.142857 0
1.64269 0.142857 0
1.64269 0.0714286 0
1.87736 0.0714286 0
1.64269 0.142857 0
1.87736 0.142857 0
1.87736 0.0714286 0
2.11203 0.0714286 0
1.87736 0.142857 0
2.11203 0.142857 0
2.11203 0.0714286 0
2.3467 0.0714286 0
2.11203 0.142857 0
2.3467 0.142857 0
2.3467 0.0714286 0
2.58137 0.0714286 0
2.3467 0.142857 0
2.58137 0.142857 0
2.58137 0.0714286 0
2.81604 0.0714286 0
2.58137 0.142857 0
2.81604 0.142857 0
2.81604 0.0714286 0
3.05071 0.0714286 0
2.81604 0.142857 0
3.05071 0.142857 0
3.05071 0.0714286 0
3.28538 0.0714286 0
3.05071 0.142857 0
3.28538 0.142857 0
3.28538 0.0714286 0
3.52005 0.0714286 0
3.28538 0.142857 0
3.52005 0.142857 0
3.52005 0.0714286 0
3.75472 0.0714286 0
3.52005 0.142857 0
3.75472 0.142857 0
3.75472 0.0714286 0
3.98938 0.0714286 0
3.75472 0.142857 0
3.98938 0.142857 0
3.98938 0.0714286 0
4.22405 0.0714286 0
3.98938 0.142857 0
4.22405 0.142857 0
4.22405 0.0714286 0
4.45872 0.0714286 0
4.22405 0.142857 0
4.45872 0.142857 0
4.45872 0.0714286 0
4.69339 0.0714286 0
4.45872 0.142857 0
4.69339 0.142857 0
4.69339 0.0714286 0
4.92806 0.0714286 0
4.69339 0.142857 0
4.92806 0.142857 0
4.92806 0.0714286 0
5.16273 0.0714286 0
4.92806 0.142857 0
5.16273 0.142857 0
5.16273 0.0714286 0
5.3974 0.0714286 0
5.16273 0.142857 0
5.3974 0.142857 0
5.3974 0.0714286 0
5.63207 0.0714286 0
5.3974 0.142857 0
5.63207 0.142857 0
-5.63207 0.142857 0
-5.3974 0.142857 0
-5.63207 0.214286 0
-5.3974 0.214286 0
-5.3974 0.142857 0
-5.16273 0.142857 0
-5.3974 0.214286 0
-5.16273 0.214286 0
-5.16273 0.142857 0
-4.92806 0.142857 0
-5.16273 0.214286 0
-4.92806 0.214286 0
-4.92806 0.142857 0
-4.69339 0.142857 0
-4.92806 0.214286 0
-4.69339 0.214286 0
-4.69339 0.142857 0
-4.45872 0.142857 0
-4.69339 0.214286 0
-4.45872 0.214286 0
-4.45872 0.142857 0
-4.22405 0.142857 0
-4.45872 0.214286 0
-4.22405 0.214286 0
-4.22405 0.142857 0
-3.98938 0.142857 0
-4.22405 0.214286 0
-3.98938 0.214286 0
-3.98938 0.142857 0
-3.75472 0.142857 0
-3.98938 0.214286 0
-3.75472 0.214286 0
-3.75472 0.142857 0
-3.52005 0.142857 0
-3.75472 0.214286 0
-3.52005 0.214286 0
-3.52005 0.142857 0
-3.28538 0.142857 0
-3.52005 0.214286 0
-3.28538 0.214286 0
-3.28538 0.142857 0
-3.05071 0.142857 0
-3.28538 0.214286 0
-3.05071 0.214286 0
-3.05071 0.142857 0
-2.81604 0.142857 0
-3.05071 0.214286 0
-2.81604 0.214286 0
-2.81604 0.142857 0
-2.58137 0.142857 0
-2.81604 0.214286 0
-2.58137 0.214286 0
-2.58137 0.142857 0
-2.3467 0.142857 0
-2.58137 0.214286 0
-2.3467 0.214286 0
-2.3467 0.142857 0
-2.11203 0.142857 0
-2.3467 0.214286 0
-2.11203 0.214286 0
-2.11203 0.142857 0
-1.87736 0.142857 0
-2.11203 0.214286 0
-1.87736 0.214286 0
-1.87736 0.142857 0
-1.64269 0.142857 0
-1.87736 0.214286 0
-1.64269 0.214286 0
-1.64269 0.142857 0
-1.40802 0.142857 0
-1.64269 0.214286 0
-1.40802 0.214286 0
-1.40802 0.142857 0
-1.17335 0.142857 0
-1.40802 0.214286 0
-1.17335 0.214286 0
-1.17335 0.142857 0
-0.938679 0.142857 0
-1.17335 0.214286 0
-0.938679 0.214286 0
-0.938679 0.142857 0
-0.704009 0.142857 0
-0.938679 0.214286 0
-0.704009 0.214286 0
-0.704009 0.142857 0
-0.469339 0.142857 0
-0.704009 0.214286 0
-0.469339 0.214286 0
-0.469339 0.142857 0
-0.23467 0.142857 0
-0.469339 0.214286 0
-0.23467 0.214286 0
-0.23467 0.142857 0
0 0.142857 0
-0.23467 0.214286 0
0 0.214286 0
0 0.142857 0
0.23467 0.142857 0
0 0.214286 0
0.23467 0.214286 0
0.23467 0.142857 0
0.469339 0.142857 0
0.23467 0.214286 0
0.469339 0.214286 0
0.469339 0.142857 0
0.704009 0.142857 0
0.469339 0.214286 0
0.704009 0.214286 0
0.704009 0.142857 0
0.938679 0.142857 0
0.704009 0.214286 0
0.938679 0.214286 0
0.938679 0.142857 0
1.17335 0.142857 0
0.938679 0.214286 0
1.17335 0.214286 0
1.17335 0.142857 0
1.40802 0.142857 0
1.17335 0.214286 0
1.40802 0.214286 0
1.40802 0.142857 0
1.64269 0.142857 0
1.40802 0.214286 0
1.64269 0.214286 0
1.64269 0.142857 0
1.87736 0.142857 0
1.64269 0.214286 0
1.87736 0.214286 0
1.87736 0.142857 0
2.11203 0.142857 0
1.87736 0.214286 0
2.11203 0.214286 0
2.11203 0.142857 0
2.3467 0.142857 0
2.11203 0.214286 0
2.3467 0.214286 0
2.3467 0.142857 0
2.58137 0.142857 0
2.3467 0.214286 0
2.58137 0.214286 0
2.58137 0.142857 0
2.81604 0.142857 0
2.58137 0.214286 0
2.81604 0.214286 0
2.81604 0.142857 0
3.05071 0.142857 0
2.81604 0.214286 0
[...]
POINT_DATA 2688
SCALARS x1_displacement double 1
LOOKUP_TABLE default
1.36221e-16 -0.0250609 1.08752e-16 -0.0248605 -0.0250609 -0.0467734 -0.0248605 -0.0464564 -0.0467734 -0.0611672 -0.0464564 -0.0608573 -0.0611672 -0.0636381 -0.0608573 -0.0634249 -0.0636381 -0.0507088 -0.0634249 -0.0505951 -0.0507088 -0.0244822 -0.0505951 -0.0244167 -0.0244822 0.00442828 -0.0244167 0.00444157 0.00442828 0.0238514 0.00444157 0.0237348 0.0238514 0.029288 0.0237348 0.0289958 0.029288 0.0232352 0.0289958 0.0228108 0.0232352 0.0104362 0.0228108 0.00998284 0.0104362 -0.00476071 0.00998284 -0.00514263 -0.00476071 -0.0190391 -0.00514263 -0.0192931 -0.0190391 -0.0300315 -0.0192931 -0.0301506 -0.0300315 -0.0361824 -0.0301506 -0.0361926 -0.0361824 -0.0367863 -0.0361926 -0.0367256 -0.0367863 -0.0321834 -0.0367256 -0.0320867 -0.0321834 -0.0238785 -0.0320867 -0.0237727 -0.0238785 -0.0142451 -0.0237727 -0.0141495 -0.0142451 -0.00573961 -0.0141495 -0.00566716 -0.00573961 -4.7092e-05 -0.00566716 -2.30076e-06 -4.7092e-05 0.00232691 -2.30076e-06 0.00234831 0.00232691 0.00193249 0.00234831 0.00193961 0.00193249 0 0.00193961 0 0 -0.00193249 0 -0.00193961 -0.00193249 -0.00232691 -0.00193961 -0.00234831 -0.00232691 4.7092e-05 -0.00234831 2.30076e-06 4.7092e-05 0.00573961 2.30076e-06 0.00566716 0.00573961 0.0142451 0.00566716 0.0141495 0.0142451 0.0238785 0.0141495 0.0237727 0.0238785 0.0321834 0.0237727 0.0320867 0.0321834 0.0367863 0.0320867 0.0367256 0.0367863 0.0361824 0.0367256 0.0361926 0.0361824 0.0300315 0.0361926 0.0301506 0.0300315 0.0190391 0.0301506 0.0192931 0.0190391 0.00476071 0.0192931 0.00514263 0.00476071 -0.0104362 0.00514263 -0.00998284 -0.0104362 -0.0232352 -0.00998284 -0.0228108 -0.0232352 -0.029288 -0.0228108 -0.0289958 -0.029288 -0.0238514 -0.0289958 -0.0237348 -0.0238514 -0.00442828 -0.0237348 -0.00444157 -0.00442828 0.0244822 -0.00444157 0.0244167 0.0244822 0.0507088 0.0244167 0.0505951 0.0507088 0.0636381 0.0505951 0.0634249 0.0636381 0.0611672 0.0634249 0.0608573 0.0611672 0.0467734 0.0608573 0.0464564 0.0467734 0.0250609 0.0464564 0.0248605 0.0250609 1.36221e-16 0.0248605 1.08752e-16 1.08752e-16 -0.0248605 8.05878e-17 -0.0242115 -0.0248605 -0.0464564 -0.0242115 -0.0454226 -0.0464564 -0.0608573 -0.0454226 -0.0598444 -0.0608573 -0.0634249 -0.0598444 -0.0627495 -0.0634249 -0.0505951 -0.0627495 -0.0502726 -0.0505951 -0.0244167 -0.0502726 -0.0242369 -0.0244167 0.00444157 -0.0242369 0.00448842 0.00444157 0.0237348 0.00448842 0.023375 0.0237348 0.0289958 0.023375 0.0280867 0.0289958 0.0228108 0.0280867 0.0215217 0.0228108 0.00998284 0.0215217 0.00865084 0.00998284 -0.00514263 0.00865084 -0.00622078 -0.00514263 -0.0192931 -0.00622078 -0.0199703 -0.0192931 -0.0301506 -0.0199703 -0.0304292 -0.0301506 -0.0361926 -0.0304292 -0.0361664 -0.0361926 -0.0367256 -0.0361664 -0.0365141 -0.0367256 -0.0320867 -0.0365141 -0.0317917 -0.0320867 -0.0237727 -0.0317917 -0.0234668 -0.0237727 -0.0141495 -0.0234668 -0.0138844 -0.0141495 -0.00566716 -0.0138844 -0.00547708 -0.00566716 -2.30076e-06 -0.00547708 0.000103265 -2.30076e-06 0.00234831 0.000103265 0.00238785 0.00234831 0.00193961 0.00238785 0.00194665 0.00193961 0 0.00194665 0 0 -0.00193961 0 -0.00194665 -0.00193961 -0.00234831 -0.00194665 -0.00238785 -0.00234831 2.30076e-06 -0.00238785 -0.000103265 2.30076e-06 0.00566716 -0.000103265 0.00547708 0.00566716 0.0141495 0.00547708 0.0138844 0.0141495 0.0237727 0.0138844 0.0234668 0.0237727 0.0320867 0.0234668 0.0317917 0.0320867 0.0367256 0.0317917 0.0365141 0.0367256 0.0361926 0.0365141 0.0361664 0.0361926 0.0301506 0.0361664 0.0304292 0.0301506 0.0192931 0.0304292 0.0199703 0.0192931 0.00514263 0.0199703 0.00622078 0.00514263 -0.00998284 0.00622078 -0.00865084 -0.00998284 -0.0228108 -0.00865084 -0.0215217 -0.0228108 -0.0289958 -0.0215217 -0.0280867 -0.0289958 -0.0237348 -0.0280867 -0.023375 -0.0237348 -0.00444157 -0.023375 -0.00448842 -0.00444157 0.0244167 -0.00448842 0.0242369 0.0244167 0.0505951 0.0242369 0.0502726 0.0505951 0.0634249 0.0502726 0.0627495 0.0634249 0.0608573 0.0627495 0.0598444 0.0608573 0.0464564 0.0598444 0.0454226 0.0464564 0.0248605 0.0454226 0.0242115 0.0248605 1.08752e-16 0.0242115 8.05878e-17 8.05878e-17 -0.0242115 6.44232e-17 -0.0230877 -0.0242115 -0.0454226 -0.0230877 -0.0436271 -0.0454226 -0.0598444 -0.0436271 -0.0580889 -0.0598444 -0.0627495 -0.0580889 -0.0616067 -0.0627495 -0.0502726 -0.0616067 -0.0497686 -0.0502726 -0.0242369 -0.0497686 -0.0239598 -0.0242369 0.00448842 -0.0239598 0.00457673 0.00448842 0.023375 0.00457673 0.0227748 0.023375 0.0280867 0.0227748 0.0265568 0.0280867 0.0215217 0.0265568 0.0193845 0.0215217 0.00865084 0.0193845 0.00649415 0.00865084 -0.00622078 0.00649415 -0.00791356 -0.00622078 -0.0199703 -0.00791356 -0.0209855 -0.0199703 -0.0304292 -0.0209855 -0.0307994 -0.0304292 -0.0361664 -0.0307994 -0.0360635 -0.0361664 -0.0365141 -0.0360635 -0.0361389 -0.0365141 -0.0317917 -0.0361389 -0.0313056 -0.0317917 -0.0234668 -0.0313056 -0.0229796 -0.0234668 -0.0138844 -0.0229796 -0.0134734 -0.0138844 -0.00547708 -0.0134734 -0.00519444 -0.00547708 0.000103265 -0.00519444 0.000245447 0.000103265 0.00238785 0.000245447 0.00242583 0.00238785 0.00194665 0.00242583 0.00194242 0.00194665 0 0.00194242 0 0 -0.00194665 0 -0.00194242 -0.00194665 -0.00238785 -0.00194242 -0.00242583 -0.00238785 -0.000103265 -0.00242583 -0.000245447 -0.000103265 0.00547708 -0.000245447 0.00519444 0.00547708 0.0138844 0.00519444 0.0134734 0.0138844 0.0234668 0.0134734 0.0229796 0.0234668 0.0317917 0.0229796 0.0313056 0.0317917 0.0365141 0.0313056 0.0361389 0.0365141 0.0361664 0.0361389 0.0360635 0.0361664 0.0304292 0.0360635 0.0307994 0.0304292 0.0199703 0.0307994 0.0209855 0.0199703 0.00622078 0.0209855 0.00791356 0.00622078 -0.00865084 0.00791356 -0.00649415 -0.00865084 -0.0215217 -0.00649415 -0.0193845 -0.0215217 -0.0280867 -0.0193845 -0.0265568 -0.0280867 -0.023375 -0.0265568 -0.0227748 -0.023375 -0.00448842 -0.0227748 -0.00457673 -0.00448842 0.0242369 -0.00457673 0.0239598 0.0242369 0.0502726 0.0239598 0.0497686 0.0502726 0.0627495 0.0497686 0.0616067 0.0627495 0.0598444 0.0616067 0.0580889 0.0598444 0.0454226 0.0580889 0.0436271 0.0454226 0.0242115 0.0436271 0.0230877 0.0242115 8.05878e-17 0.0230877 6.44232e-17 6.44232e-17 -0.0230877 5.14282e-17 -0.0214267 -0.0230877 -0.0436271 -0.0214267 -0.04095 -0.0436271 -0.0580889 -0.04095 -0.055445 -0.0580889 -0.0616067 -0.055445 -0.0598861 -0.0616067 -0.0497686 -0.0598861 -0.0490454 -0.0497686 -0.0239598 -0.0490454 -0.0235901 -0.0239598 0.00457673 -0.0235901 0.00467487 0.00457673 0.0227748 0.00467487 0.0218524 0.0227748 0.0265568 0.0218524 0.0243052 0.0265568 0.0193845 0.0243052 0.0163416 0.0193845 0.00649415 0.0163416 0.00352885 0.00649415 -0.00791356 0.00352885 -0.0101456 -0.00791356 -0.0209855 -0.0101456 -0.022237 -0.0209855 -0.0307994 -0.022237 -0.0311626 -0.0307994 -0.0360635 -0.0311626 -0.0358067 -0.0360635 -0.0361389 -0.0358067 -0.0355523 -0.0361389 -0.0313056 -0.0355523 -0.0306108 -0.0313056 -0.0229796 -0.0306108 -0.0223188 -0.0229796 -0.0134734 -0.0223188 -0.0129434 -0.0134734 -0.00519444 -0.0129434 -0.00485912 -0.00519444 0.000245447 -0.00485912 0.000380158 0.000245447 0.00242583 0.000380158 0.00242447 0.00242583 0.00194242 0.00242447 0.00190514 0.00194242 0 0.00190514 0 0 -0.00194242 0 -0.00190514 -0.00194242 -0.00242583 -0.00190514 -0.00242447 -0.00242583 -0.000245447 -0.00242447 -0.000380158 -0.000245447 0.00519444 -0.000380158 0.00485912 0.00519444 0.0134734 0.00485912 0.0129434 0.0134734 0.0229796 0.0129434 0.0223188 0.0229796 0.0313056 0.0223188 0.0306108 0.0313056 0.0361389 0.0306108 0.0355523 0.0361389 0.0360635 0.0355523 0.0358067 0.0360635 0.0307994 0.0358067 0.0311626 0.0307994 0.0209855 0.0311626 0.022237 0.0209855 0.00791356 0.022237 0.0101456 0.00791356 -0.00649415 0.0101456 -0.00352885 -0.00649415 -0.0193845 -0.00352885 -0.0163416 -0.0193845 -0.0265568 -0.0163416 -0.0243052 -0.0265568 -0.0227748 -0.0243052 -0.0218524 -0.0227748 -0.00457673 -0.0218524 -0.00467487 -0.00457673 0.0239598 -0.00467487 0.0235901 0.0239598 0.0497686 0.0235901 0.0490454 0.0497686 0.0616067 0.0490454 0.0598861 0.0616067 0.0580889 0.0598861 0.055445 0.0580889 0.0436271 0.055445 0.04095 0.0436271 0.0230877 0.04095 0.0214267 0.0230877 6.44232e-17 0.0214267 5.14282e-17 5.14282e-17 -0.0214267 4.52941e-17 -0.0191408 -0.0214267 -0.04095 -0.0191408 -0.03721 -0.04095 -0.055445 -0.03721 -0.0516714 -0.055445 -0.0598861 -0.0516714 -0.05738 -0.0598861 -0.0490454 -0.05738 -0.0480088 -0.0490454 -0.0235901 -0.0480088 -0.0231233 -0.0235901 0.00467487 -0.0231233 0.00471591 0.00467487 0.0218524 0.00471591 0.0204451 0.0218524 0.0243052 0.0204451 0.0211406 0.0243052 0.0163416 0.0211406 0.012273 0.0163416 0.00352885 0.012273 -0.00025491 0.00352885 -0.0101456 -0.00025491 -0.0128404 -0.0101456 -0.022237 -0.0128404 -0.0236056 -0.022237 -0.0311626 -0.0236056 -0.031393 -0.0311626 -0.0358067 -0.031393 -0.0352875 -0.0358067 -0.0355523 -0.0352875 -0.0346779 -0.0355523 -0.0306108 -0.0346779 -0.029669 -0.0306108 -0.0223188 -0.029669 -0.0214836 -0.0223188 -0.0129434 -0.0214836 -0.0123258 -0.0129434 -0.00485912 -0.0123258 -0.00452509 -0.00485912 0.000380158 -0.00452509 0.000444866 0.000380158 0.00242447 0.000444866 0.00232952 0.00242447 0.00190514 0.00232952 0.00180359 0.00190514 0 0.00180359 0 0 -0.00190514 0 -0.00180359 -0.00190514 -0.00242447 -0.00180359 -0.00232952 -0.00242447 -0.000380158 -0.00232952 -0.000444866 -0.000380158 0.00485912 -0.000444866 0.00452509 0.00485912 0.0129434 0.00452509 0.0123258 0.0129434 0.0223188 0.0123258 0.0214836 0.0223188 0.0306108 0.0214836 0.029669 0.0306108 0.0355523 0.029669 0.0346779 0.0355523 0.0358067 0.0346779 0.0352875 0.0358067 0.0311626 0.0352875 0.031393 0.0311626 0.022237 0.031393 0.0236056 0.022237 0.0101456 0.0236056 0.0128404 0.0101456 -0.00352885 0.0128404 0.00025491 -0.00352885 -0.0163416 0.00025491 -0.012273 -0.0163416 -0.0243052 -0.012273 -0.0211406 -0.0243052 -0.0218524 -0.0211406 -0.0204451 -0.0218524 -0.00467487 -0.0204451 -0.00471591 -0.00467487 0.0235901 -0.00471591 0.0231233 0.0235901 0.0490454 0.0231233 0.0480088 0.0490454 0.0598861 0.0480088 0.05738 0.0598861 0.055445 0.05738 0.0516714 0.055445 0.04095 0.0516714 0.03721 0.04095 0.0214267 0.03721 0.0191408 0.0214267 5.14282e-17 0.0191408 4.52941e-17 4.52941e-17 -0.0191408 4.1896e-17 -0.0161321 -0.0191408 -0.03721 -0.0161321 -0.0321838 -0.03721 -0.0516714 -0.0321838 -0.0464384 -0.0516714 -0.05738 -0.0464384 -0.0537782 -0.05738 -0.0480088 -0.0537782 -0.0465045 -0.0480088 -0.0231233 -0.0465045 -0.0225473 -0.0231233 0.00471591 -0.0225473 0.00459292 0.00471591 0.0204451 0.00459292 0.0183014 0.0204451 0.0211406 0.0183014 0.0167819 0.0211406 0.012273 0.0167819 0.00700903 0.012273 -0.00025491 0.00700903 -0.00487714 -0.00025491 -0.0128404 -0.00487714 -0.015911 -0.0128404 -0.0236056 -0.015911 -0.0249527 -0.0236056 -0.031393 -0.0249527 -0.0313393 -0.031393 -0.0352875 -0.0313393 -0.0343689 -0.0352875 -0.0346779 -0.0343689 -0.0334127 -0.0346779 -0.029669 -0.0334127 -0.0284239 -0.029669 -0.0214836 -0.0284239 -0.0204673 -0.0214836 -0.0123258 -0.0204673 -0.0116583 -0.0123258 -0.00452509 -0.0116583 -0.00426176 -0.00452509 0.000444866 -0.00426176 0.000358118 0.000444866 0.00232952 0.000358118 0.0020706 0.00232952 0.00180359 0.0020706 0.00159747 0.00180359 0 0.00159747 0 0 -0.00180359 0 -0.00159747 -0.00180359 -0.00232952 -0.00159747 -0.0020706 -0.00232952 -0.000444866 -0.0020706 -0.000358118 -0.000444866 0.00452509 -0.000358118 0.00426176 0.00452509 0.0123258 0.00426176 0.0116583 0.0123258 0.0214836 0.0116583 0.0204673 0.0214836 0.029669 0.0204673 0.0284239 0.029669 0.0346779 0.0284239 0.0334127 0.0346779 0.0352875 0.0334127 0.0343689 0.0352875 0.031393 0.0343689 0.0313393 0.031393 0.0236056 0.0313393 0.0249527 0.0236056 0.0128404 0.0249527 0.015911 0.0128404 0.00025491 0.015911 0.00487714 0.00025491 -0.012273 0.00487714 -0.00700903 -0.012273 -0.0211406 -0.00700903 -0.0167819 -0.0211406 -0.0204451 -0.0167819 -0.0183014 -0.0204451 -0.00471591 -0.0183014 -0.00459292 -0.00471591 0.0231233 -0.00459292 0.0225473 0.0231233 0.0480088 0.0225473 0.0465045 0.0480088 0.05738 0.0465045 0.0537782 0.05738 0.0516714 0.0537782 0.0464384 0.0516714 0.03721 0.0464384 0.0321838 0.03721 0.0191408 0.0321838 0.0161321 0.0191408 4.52941e-17 0.0161321 4.1896e-17 4.1896e-17 -0.0161321 4.40038e-17 -0.0123116 -0.0161321 -0.0321838 -0.0123116 -0.0256296 -0.0321838 -0.0464384 -0.0256296 -0.039334 -0.0464384 -0.0537782 -0.039334 -0.04865 -0.0537782 -0.0465045 -0.04865 -0.0443023 -0.0465045 -0.0225473 -0.0443023 -0.0218429 -0.0225473 0.00459292 -0.0218429 0.00414494 0.00459292 0.0183014 0.00414494 0.0150581 0.0183014 0.0167819 0.0150581 0.0108538 0.0167819 0.00700903 0.0108538 0.000347498 0.00700903 -0.00487714 0.000347498 -0.0103491 -0.00487714 -0.015911 -0.0103491 -0.019251 -0.015911 -0.0249527 -0.019251 -0.0261185 -0.0249527 -0.0313393 -0.0261185 -0.0308262 -0.0313393 -0.0343689 -0.0308262 -0.0328861 -0.0343689 -0.0334127 -0.0328861 -0.0316278 -0.0334127 -0.0284239 -0.0316278 -0.0268018 -0.0284239 -0.0204673 -0.0268018 -0.0192587 -0.0204673 -0.0116583 -0.0192587 -0.0109872 -0.0116583 -0.00426176 -0.0109872 -0.00415698 -0.00426176 0.000358118 -0.00415698 1.7477e-05 0.000358118 0.0020706 1.7477e-05 0.00156052 0.0020706 0.00159747 0.00156052 0.00123762 0.00159747 0 0.00123762 0 0 -0.00159747 0 -0.00123762 -0.00159747 -0.0020706 -0.00123762 -0.00156052 -0.0020706 -0.000358118 -0.00156052 -1.7477e-05 -0.000358118 0.00426176 -1.7477e-05 0.00415698 0.00426176 0.0116583 0.00415698 0.0109872 0.0116583 0.0204673 0.0109872 0.0192587 0.0204673 0.0284239 0.0192587 0.0268018 0.0284239 0.0334127 0.0268018 0.0316278 0.0334127 0.0343689 0.0316278 0.0328861 0.0343689 0.0313393 0.0328861 0.0308262 0.0313393 0.0249527 0.0308262 0.0261185 0.0249527 0.015911 0.0261185 0.019251 0.015911 0.00487714 0.019251 0.0103491 0.00487714 -0.00700903 0.0103491 -0.000347498 -0.00700903 -0.0167819 -0.000347498 -0.0108538 -0.0167819 -0.0183014 -0.0108538 -0.0150581 -0.0183014 -0.00459292 -0.0150581 -0.00414494 -0.00459292 0.0225473 -0.00414494 0.0218429 0.0225473 0.0465045 0.0218429 0.0443023 0.0465045 0.0537782 0.0443023 0.04865 0.0537782 0.0464384 0.04865 0.039334 0.0464384 0.0321838 0.039334 0.0256296 0.0321838 0.0161321 0.0256296 0.0123116 0.0161321 4.1896e-17 0.0123116 4.40038e-17 4.40038e-17 -0.0123116 4.56683e-17 -0.0076213 -0.0123116 -0.0256296 -0.0076213 -0.0173235 -0.0256296 -0.039334 -0.0173235 -0.0298769 -0.039334 -0.04865 -0.0298769 -0.0414135 -0.04865 -0.0443023 -0.0414135 -0.0410629 -0.0443023 -0.0218429 -0.0410629 -0.0209816 -0.0218429 0.00414494 -0.0209816 0.00312926 0.00414494 0.0150581 0.00312926 0.0102025 0.0150581 0.0108538 0.0102025 0.00288349 0.0108538 0.000347498 0.00288349 -0.00791901 0.000347498 -0.0103491 -0.00791901 -0.0166497 -0.0103491 -0.019251 -0.0166497 -0.0227257 -0.019251 -0.0261185 -0.0227257 -0.0269227 -0.0261185 -0.0308262 -0.0269227 -0.0296557 -0.0308262 -0.0328861 -0.0296557 -0.030647 -0.0328861 -0.0316278 -0.030647 -0.0291665 -0.0316278 -0.0268018 -0.0291665 -0.0247096 -0.0268018 -0.0192587 -0.0247096 -0.017843 -0.0192587 -0.0109872 -0.017843 -0.0103719 -0.0109872 -0.00415698 -0.0103719 -0.00432211 -0.00415698 1.7477e-05 -0.00432211 -0.000703943 1.7477e-05 0.00156052 -0.000703943 0.000694297 0.00156052 0.00123762 0.000694297 0.000666216 0.00123762 0 0.000666216 0 0 -0.00123762 0 -0.000666216 -0.00123762 -0.00156052 -0.000666216 -0.000694297 -0.00156052 -1.7477e-05 -0.000694297 0.000703943 -1.7477e-05 0.00415698 0.000703943 0.00432211 0.00415698 0.0109872 0.00432211 0.0103719 0.0109872 0.0192587 0.0103719 0.017843 0.0192587 0.0268018 0.017843 0.0247096 0.0268018 0.0316278 0.0247096 0.0291665 0.0316278 0.0328861 0.0291665 0.030647 0.0328861 0.0308262 0.030647 0.0296557 0.0308262 0.0261185 0.0296557 0.0269227 0.0261185 0.019251 0.0269227 0.0227257 0.019251 0.0103491 0.0227257 0.0166497 0.0103491 -0.000347498 0.0166497 0.00791901 -0.000347498 -0.0108538 0.00791901 -0.00288349 -0.0108538 -0.0150581 -0.00288349 -0.0102025 -0.0150581 -0.00414494 -0.0102025 -0.00312926 -0.00414494 0.0218429 -0.00312926 0.0209816 0.0218429 0.0443023 0.0209816 0.0410629 0.0443023 0.04865 0.0410629 0.0414135 0.04865 0.039334 0.0414135 0.0298769 0.039334 0.0256296 0.0298769 0.0173235 0.0256296 0.0123116 0.0173235 0.0076213 0.0123116 4.40038e-17 0.0076213 4.56683e-17 4.56683e-17 -0.0076213 4.11921e-17 -0.00205722 -0.0076213 -0.0173235 -0.00205722 -0.00710873 -0.0173235 -0.0298769 -0.00710873 -0.0175452 -0.0298769 -0.0414135 -0.0175452 -0.0312905 -0.0414135 -0.0410629 -0.0312905 -0.0362774 -0.0410629 -0.0209816 -0.0362774 -0.0199211 -0.0209816 0.00312926 -0.0199211 0.00117053 0.00312926 0.0102025 0.00117053 0.00301133 0.0102025 0.00288349 0.00301133 -0.00769308 0.00288349 -0.00791901 -0.00769308 -0.0179592 -0.00791901 -0.0166497 -0.0179592 -0.0236997 -0.0166497 -0.0227257 -0.0236997 -0.0261686 -0.0227257 -0.0269227 -0.0261686 -0.0271671 -0.0269227 -0.0296557 -0.0271671 -0.0276105 -0.0296557 -0.030647 -0.0276105 -0.0274312 -0.030647 -0.0291665 -0.0274312 -0.02584 -0.0291665 -0.0247096 -0.02584 -0.0220317 -0.0247096 -0.017843 -0.0220317 -0.0162029 -0.017843 -0.0103719 -0.0162029 -0.00989072 -0.0103719 -0.00432211 -0.00989072 -0.00489928 -0.00432211 -0.000703943 -0.00489928 -0.00196216 -0.000703943 0.000694297 -0.00196216 -0.000651809 0.000694297 0.000666216 -0.000651809 -0.000182605 0.000666216 0 -0.000182605 0 0 -0.000666216 0 0.000182605 -0.000666216 -0.000694297 0.000182605 0.000651809 -0.000694297 0.000703943 0.000651809 0.00196216 0.000703943 0.00432211 0.00196216 0.00489928 0.00432211 0.0103719 0.00489928 0.00989072 0.0103719 0.017843 0.00989072 0.0162029 0.017843 0.0247096 0.0162029 0.0220317 0.0247096 0.0291665 0.0220317 0.02584 0.0291665 0.030647 0.02584 0.0274312 0.030647 0.0296557 0.0274312 0.0276105 0.0296557 0.0269227 0.0276105 0.0271671 0.0269227 0.0227257 0.0271671 0.0261686 0.0227257 0.0166497 0.0261686 0.0236997 0.0166497 0.00791901 0.0236997 0.0179592 0.00791901 -0.00288349 0.0179592 0.00769308 -0.00288349 -0.0102025 0.00769308 -0.00301133 -0.0102025 -0.00312926 -0.00301133 -0.00117053 -0.00312926 0.0209816 -0.00117053 0.0199211 0.0209816 0.0410629 0.0199211 0.0362774 0.0410629 0.0414135 0.0362774 0.0312905 0.0414135 0.0298769 0.0312905 0.0175452 0.0298769 0.0173235 0.0175452 0.00710873 0.0173235 0.0076213 0.00710873 0.00205722 0.0076213 4.56683e-17 0.00205722 4.11921e-17 4.11921e-17 -0.00205722 3.42516e-17 0.00431818 -0.00205722 -0.00710873 0.00431818 0.00503966 -0.00710873 -0.0175452 0.00503966 -0.0018452 -0.0175452 -0.0312905 -0.0018452 -0.0172479 -0.0312905 -0.0362774 -0.0172479 -0.0291559 -0.0362774 -0.0199211 -0.0291559 -0.0185916 -0.0199211 0.00117053 -0.0185916 -0.00233494 0.00117053 0.00301133 -0.00233494 -0.00754087 0.00301133 -0.00769308 -0.00754087 -0.0214942 -0.00769308 -0.0179592 -0.0214942 -0.0298343 -0.0179592 -0.0236997 -0.0298343 -0.0313418 -0.0236997 -0.0261686 -0.0313418 -0.0293841 -0.0261686 -0.0271671 -0.0293841 -0.0266415 -0.0271671 -0.0276105 -0.0266415 -0.024458 -0.0276105 -0.0274312 -0.024458 -0.0229889 -0.0274312 -0.02584 -0.0229889 -0.0214197 -0.02584 -0.0220317 -0.0214197 -0.0186221 -0.0220317 -0.0162029 -0.0186221 -0.0143186 -0.0162029 -0.00989072 -0.0143186 -0.00964906 -0.00989072 -0.00489928 -0.00964906 -0.00607215 -0.00489928 -0.00196216 -0.00607215 -0.00394813 -0.00196216 -0.000651809 -0.00394813 -0.00262042 -0.000651809 -0.000182605 -0.00262042 -0.00138114 -0.000182605 0 -0.00138114 0 0 0.000182605 0 0.00138114 0.000182605 0.000651809 0.00138114 0.00262042 0.000651809 0.00196216 0.00262042 0.00394813 0.00196216 0.00489928 0.00394813 0.00607215 0.00489928 0.00989072 0.00607215 0.00964906 0.00989072 0.0162029 0.00964906 0.0143186 0.0162029 0.0220317 0.0143186 0.0186221 0.0220317 0.02584 0.0186221 0.0214197 0.02584 0.0274312 0.0214197 0.0229889 0.0274312 0.0276105 0.0229889 0.024458 0.0276105 0.0271671 0.024458 0.0266415 0.0271671 0.0261686 0.0266415 0.0293841 0.0261686 0.0236997 0.0293841 0.0313418 0.0236997 0.0179592 0.0313418 0.0298343 0.017959