# vtk DataFile Version 3.0
#This file was generated by the deal.II library on 2017/9/27 at 13:18:58
ASCII
DATASET UNSTRUCTURED_GRID

POINTS 2688 double
-5.63207 0 0
-5.3974 0 0
-5.63207 0.0714286 0
-5.3974 0.0714286 0
-5.3974 0 0
-5.16273 0 0
-5.3974 0.0714286 0
-5.16273 0.0714286 0
-5.16273 0 0
-4.92806 0 0
-5.16273 0.0714286 0
-4.92806 0.0714286 0
-4.92806 0 0
-4.69339 0 0
-4.92806 0.0714286 0
-4.69339 0.0714286 0
-4.69339 0 0
-4.45872 0 0
-4.69339 0.0714286 0
-4.45872 0.0714286 0
-4.45872 0 0
-4.22405 0 0
-4.45872 0.0714286 0
-4.22405 0.0714286 0
-4.22405 0 0
-3.98938 0 0
-4.22405 0.0714286 0
-3.98938 0.0714286 0
-3.98938 0 0
-3.75472 0 0
-3.98938 0.0714286 0
-3.75472 0.0714286 0
-3.75472 0 0
-3.52005 0 0
-3.75472 0.0714286 0
-3.52005 0.0714286 0
-3.52005 0 0
-3.28538 0 0
-3.52005 0.0714286 0
-3.28538 0.0714286 0
-3.28538 0 0
-3.05071 0 0
-3.28538 0.0714286 0
-3.05071 0.0714286 0
-3.05071 0 0
-2.81604 0 0
-3.05071 0.0714286 0
-2.81604 0.0714286 0
-2.81604 0 0
-2.58137 0 0
-2.81604 0.0714286 0
-2.58137 0.0714286 0
-2.58137 0 0
-2.3467 0 0
-2.58137 0.0714286 0
-2.3467 0.0714286 0
-2.3467 0 0
-2.11203 0 0
-2.3467 0.0714286 0
-2.11203 0.0714286 0
-2.11203 0 0
-1.87736 0 0
-2.11203 0.0714286 0
-1.87736 0.0714286 0
-1.87736 0 0
-1.64269 0 0
-1.87736 0.0714286 0
-1.64269 0.0714286 0
-1.64269 0 0
-1.40802 0 0
-1.64269 0.0714286 0
-1.40802 0.0714286 0
-1.40802 0 0
-1.17335 0 0
-1.40802 0.0714286 0
-1.17335 0.0714286 0
-1.17335 0 0
-0.938679 0 0
-1.17335 0.0714286 0
-0.938679 0.0714286 0
-0.938679 0 0
-0.704009 0 0
-0.938679 0.0714286 0
-0.704009 0.0714286 0
-0.704009 0 0
-0.469339 0 0
-0.704009 0.0714286 0
-0.469339 0.0714286 0
-0.469339 0 0
-0.23467 0 0
-0.469339 0.0714286 0
-0.23467 0.0714286 0
-0.23467 0 0
0 0 0
-0.23467 0.0714286 0
0 0.0714286 0
0 0 0
0.23467 0 0
0 0.0714286 0
0.23467 0.0714286 0
0.23467 0 0
0.469339 0 0
0.23467 0.0714286 0
0.469339 0.0714286 0
0.469339 0 0
0.704009 0 0
0.469339 0.0714286 0
0.704009 0.0714286 0
0.704009 0 0
0.938679 0 0
0.704009 0.0714286 0
0.938679 0.0714286 0
0.938679 0 0
1.17335 0 0
0.938679 0.0714286 0
1.17335 0.0714286 0
1.17335 0 0
1.40802 0 0
1.17335 0.0714286 0
1.40802 0.0714286 0
1.40802 0 0
1.64269 0 0
1.40802 0.0714286 0
1.64269 0.0714286 0
1.64269 0 0
1.87736 0 0
1.64269 0.0714286 0
1.87736 0.0714286 0
1.87736 0 0
2.11203 0 0
1.87736 0.0714286 0
2.11203 0.0714286 0
2.11203 0 0
2.3467 0 0
2.11203 0.0714286 0
2.3467 0.0714286 0
2.3467 0 0
2.58137 0 0
2.3467 0.0714286 0
2.58137 0.0714286 0
2.58137 0 0
2.81604 0 0
2.58137 0.0714286 0
2.81604 0.0714286 0
2.81604 0 0
3.05071 0 0
2.81604 0.0714286 0
3.05071 0.0714286 0
3.05071 0 0
3.28538 0 0
3.05071 0.0714286 0
3.28538 0.0714286 0
3.28538 0 0
3.52005 0 0
3.28538 0.0714286 0
3.52005 0.0714286 0
3.52005 0 0
3.75472 0 0
3.52005 0.0714286 0
3.75472 0.0714286 0
3.75472 0 0
3.98938 0 0
3.75472 0.0714286 0
3.98938 0.0714286 0
3.98938 0 0
4.22405 0 0
3.98938 0.0714286 0
4.22405 0.0714286 0
4.22405 0 0
4.45872 0 0
4.22405 0.0714286 0
4.45872 0.0714286 0
4.45872 0 0
4.69339 0 0
4.45872 0.0714286 0
4.69339 0.0714286 0
4.69339 0 0
4.92806 0 0
4.69339 0.0714286 0
4.92806 0.0714286 0
4.92806 0 0
5.16273 0 0
4.92806 0.0714286 0
5.16273 0.0714286 0
5.16273 0 0
5.3974 0 0
5.16273 0.0714286 0
5.3974 0.0714286 0
5.3974 0 0
5.63207 0 0
5.3974 0.0714286 0
5.63207 0.0714286 0
-5.63207 0.0714286 0
-5.3974 0.0714286 0
-5.63207 0.142857 0
-5.3974 0.142857 0
-5.3974 0.0714286 0
-5.16273 0.0714286 0
-5.3974 0.142857 0
-5.16273 0.142857 0
-5.16273 0.0714286 0
-4.92806 0.0714286 0
-5.16273 0.142857 0
-4.92806 0.142857 0
-4.92806 0.0714286 0
-4.69339 0.0714286 0
-4.92806 0.142857 0
-4.69339 0.142857 0
-4.69339 0.0714286 0
-4.45872 0.0714286 0
-4.69339 0.142857 0
-4.45872 0.142857 0
-4.45872 0.0714286 0
-4.22405 0.0714286 0
-4.45872 0.142857 0
-4.22405 0.142857 0
-4.22405 0.0714286 0
-3.98938 0.0714286 0
-4.22405 0.142857 0
-3.98938 0.142857 0
-3.98938 0.0714286 0
-3.75472 0.0714286 0
-3.98938 0.142857 0
-3.75472 0.142857 0
-3.75472 0.0714286 0
-3.52005 0.0714286 0
-3.75472 0.142857 0
-3.52005 0.142857 0
-3.52005 0.0714286 0
-3.28538 0.0714286 0
-3.52005 0.142857 0
-3.28538 0.142857 0
-3.28538 0.0714286 0
-3.05071 0.0714286 0
-3.28538 0.142857 0
-3.05071 0.142857 0
-3.05071 0.0714286 0
-2.81604 0.0714286 0
-3.05071 0.142857 0
-2.81604 0.142857 0
-2.81604 0.0714286 0
-2.58137 0.0714286 0
-2.81604 0.142857 0
-2.58137 0.142857 0
-2.58137 0.0714286 0
-2.3467 0.0714286 0
-2.58137 0.142857 0
-2.3467 0.142857 0
-2.3467 0.0714286 0
-2.11203 0.0714286 0
-2.3467 0.142857 0
-2.11203 0.142857 0
-2.11203 0.0714286 0
-1.87736 0.0714286 0
-2.11203 0.142857 0
-1.87736 0.142857 0
-1.87736 0.0714286 0
-1.64269 0.0714286 0
-1.87736 0.142857 0
-1.64269 0.142857 0
-1.64269 0.0714286 0
-1.40802 0.0714286 0
-1.64269 0.142857 0
-1.40802 0.142857 0
-1.40802 0.0714286 0
-1.17335 0.0714286 0
-1.40802 0.142857 0
-1.17335 0.142857 0
-1.17335 0.0714286 0
-0.938679 0.0714286 0
-1.17335 0.142857 0
-0.938679 0.142857 0
-0.938679 0.0714286 0
-0.704009 0.0714286 0
-0.938679 0.142857 0
-0.704009 0.142857 0
-0.704009 0.0714286 0
-0.469339 0.0714286 0
-0.704009 0.142857 0
-0.469339 0.142857 0
-0.469339 0.0714286 0
-0.23467 0.0714286 0
-0.469339 0.142857 0
-0.23467 0.142857 0
-0.23467 0.0714286 0
0 0.0714286 0
-0.23467 0.142857 0
0 0.142857 0
0 0.0714286 0
0.23467 0.0714286 0
0 0.142857 0
0.23467 0.142857 0
0.23467 0.0714286 0
0.469339 0.0714286 0
0.23467 0.142857 0
0.469339 0.142857 0
0.469339 0.0714286 0
0.704009 0.0714286 0
0.469339 0.142857 0
0.704009 0.142857 0
0.704009 0.0714286 0
0.938679 0.0714286 0
0.704009 0.142857 0
0.938679 0.142857 0
0.938679 0.0714286 0
1.17335 0.0714286 0
0.938679 0.142857 0
1.17335 0.142857 0
1.17335 0.0714286 0
1.40802 0.0714286 0
1.17335 0.142857 0
1.40802 0.142857 0
1.40802 0.0714286 0
1.64269 0.0714286 0
1.40802 0.142857 0
1.64269 0.142857 0
1.64269 0.0714286 0
1.87736 0.0714286 0
1.64269 0.142857 0
1.87736 0.142857 0
1.87736 0.0714286 0
2.11203 0.0714286 0
1.87736 0.142857 0
2.11203 0.142857 0
2.11203 0.0714286 0
2.3467 0.0714286 0
2.11203 0.142857 0
2.3467 0.142857 0
2.3467 0.0714286 0
2.58137 0.0714286 0
2.3467 0.142857 0
2.58137 0.142857 0
2.58137 0.0714286 0
2.81604 0.0714286 0
2.58137 0.142857 0
2.81604 0.142857 0
2.81604 0.0714286 0
3.05071 0.0714286 0
2.81604 0.142857 0
3.05071 0.142857 0
3.05071 0.0714286 0
3.28538 0.0714286 0
3.05071 0.142857 0
3.28538 0.142857 0
3.28538 0.0714286 0
3.52005 0.0714286 0
3.28538 0.142857 0
3.52005 0.142857 0
3.52005 0.0714286 0
3.75472 0.0714286 0
3.52005 0.142857 0
3.75472 0.142857 0
3.75472 0.0714286 0
3.98938 0.0714286 0
3.75472 0.142857 0
3.98938 0.142857 0
3.98938 0.0714286 0
4.22405 0.0714286 0
3.98938 0.142857 0
4.22405 0.142857 0
4.22405 0.0714286 0
4.45872 0.0714286 0
4.22405 0.142857 0
4.45872 0.142857 0
4.45872 0.0714286 0
4.69339 0.0714286 0
4.45872 0.142857 0
4.69339 0.142857 0
4.69339 0.0714286 0
4.92806 0.0714286 0
4.69339 0.142857 0
4.92806 0.142857 0
4.92806 0.0714286 0
5.16273 0.0714286 0
4.92806 0.142857 0
5.16273 0.142857 0
5.16273 0.0714286 0
5.3974 0.0714286 0
5.16273 0.142857 0
5.3974 0.142857 0
5.3974 0.0714286 0
5.63207 0.0714286 0
5.3974 0.142857 0
5.63207 0.142857 0
-5.63207 0.142857 0
-5.3974 0.142857 0
-5.63207 0.214286 0
-5.3974 0.214286 0
-5.3974 0.142857 0
-5.16273 0.142857 0
-5.3974 0.214286 0
-5.16273 0.214286 0
-5.16273 0.142857 0
-4.92806 0.142857 0
-5.16273 0.214286 0
-4.92806 0.214286 0
-4.92806 0.142857 0
-4.69339 0.142857 0
-4.92806 0.214286 0
-4.69339 0.214286 0
-4.69339 0.142857 0
-4.45872 0.142857 0
-4.69339 0.214286 0
-4.45872 0.214286 0
-4.45872 0.142857 0
-4.22405 0.142857 0
-4.45872 0.214286 0
-4.22405 0.214286 0
-4.22405 0.142857 0
-3.98938 0.142857 0
-4.22405 0.214286 0
-3.98938 0.214286 0
-3.98938 0.142857 0
-3.75472 0.142857 0
-3.98938 0.214286 0
-3.75472 0.214286 0
-3.75472 0.142857 0
-3.52005 0.142857 0
-3.75472 0.214286 0
-3.52005 0.214286 0
-3.52005 0.142857 0
-3.28538 0.142857 0
-3.52005 0.214286 0
-3.28538 0.214286 0
-3.28538 0.142857 0
-3.05071 0.142857 0
-3.28538 0.214286 0
-3.05071 0.214286 0
-3.05071 0.142857 0
-2.81604 0.142857 0
-3.05071 0.214286 0
-2.81604 0.214286 0
-2.81604 0.142857 0
-2.58137 0.142857 0
-2.81604 0.214286 0
-2.58137 0.214286 0
-2.58137 0.142857 0
-2.3467 0.142857 0
-2.58137 0.214286 0
-2.3467 0.214286 0
-2.3467 0.142857 0
-2.11203 0.142857 0
-2.3467 0.214286 0
-2.11203 0.214286 0
-2.11203 0.142857 0
-1.87736 0.142857 0
-2.11203 0.214286 0
-1.87736 0.214286 0
-1.87736 0.142857 0
-1.64269 0.142857 0
-1.87736 0.214286 0
-1.64269 0.214286 0
-1.64269 0.142857 0
-1.40802 0.142857 0
-1.64269 0.214286 0
-1.40802 0.214286 0
-1.40802 0.142857 0
-1.17335 0.142857 0
-1.40802 0.214286 0
-1.17335 0.214286 0
-1.17335 0.142857 0
-0.938679 0.142857 0
-1.17335 0.214286 0
-0.938679 0.214286 0
-0.938679 0.142857 0
-0.704009 0.142857 0
-0.938679 0.214286 0
-0.704009 0.214286 0
-0.704009 0.142857 0
-0.469339 0.142857 0
-0.704009 0.214286 0
-0.469339 0.214286 0
-0.469339 0.142857 0
-0.23467 0.142857 0
-0.469339 0.214286 0
-0.23467 0.214286 0
-0.23467 0.142857 0
0 0.142857 0
-0.23467 0.214286 0
0 0.214286 0
0 0.142857 0
0.23467 0.142857 0
0 0.214286 0
0.23467 0.214286 0
0.23467 0.142857 0
0.469339 0.142857 0
0.23467 0.214286 0
0.469339 0.214286 0
0.469339 0.142857 0
0.704009 0.142857 0
0.469339 0.214286 0
0.704009 0.214286 0
0.704009 0.142857 0
0.938679 0.142857 0
0.704009 0.214286 0
0.938679 0.214286 0
0.938679 0.142857 0
1.17335 0.142857 0
0.938679 0.214286 0
1.17335 0.214286 0
1.17335 0.142857 0
1.40802 0.142857 0
1.17335 0.214286 0
1.40802 0.214286 0
1.40802 0.142857 0
1.64269 0.142857 0
1.40802 0.214286 0
1.64269 0.214286 0
1.64269 0.142857 0
1.87736 0.142857 0
1.64269 0.214286 0
1.87736 0.214286 0
1.87736 0.142857 0
2.11203 0.142857 0
1.87736 0.214286 0
2.11203 0.214286 0
2.11203 0.142857 0
2.3467 0.142857 0
2.11203 0.214286 0
2.3467 0.214286 0
2.3467 0.142857 0
2.58137 0.142857 0
2.3467 0.214286 0
2.58137 0.214286 0
2.58137 0.142857 0
2.81604 0.142857 0
2.58137 0.214286 0
2.81604 0.214286 0
2.81604 0.142857 0
3.05071 0.142857 0
2.81604 0.214286 0
[...]
POINT_DATA 2688
SCALARS x1_displacement double 1
LOOKUP_TABLE default
1.63925e-16 -0.0289043 1.36179e-16 -0.0283172 -0.0289043 -0.0568218 -0.0283172 -0.0558292 -0.0568218 -0.0807967 -0.0558292 -0.0797454 -0.0807967 -0.0945088 -0.0797454 -0.0937687 -0.0945088 -0.0895266 -0.0937687 -0.089218 -0.0895266 -0.0646032 -0.089218 -0.0645427 -0.0646032 -0.0384889 -0.0645427 -0.0386849 -0.0384889 -0.0303854 -0.0386849 -0.0310556 -0.0303854 -0.0392188 -0.0310556 -0.0402943 -0.0392188 -0.0558274 -0.0402943 -0.0569984 -0.0558274 -0.07264 -0.0569984 -0.0736269 -0.07264 -0.0854287 -0.0736269 -0.0861125 -0.0854287 -0.0925839 -0.0861125 -0.0929754 -0.0925839 -0.0941053 -0.0929754 -0.0942729 -0.0941053 -0.0908328 -0.0942729 -0.0908532 -0.0908328 -0.0839502 -0.0908532 -0.0838883 -0.0839502 -0.0746748 -0.0838883 -0.0745778 -0.0746748 -0.0640655 -0.0745778 -0.0639641 -0.0640655 -0.052924 -0.0639641 -0.0528352 -0.052924 -0.0417723 -0.0528352 -0.0417033 -0.0417723 -0.0308836 -0.0417033 -0.0308353 -0.0308836 -0.0203387 -0.0308353 -0.0203089 -0.0203387 -0.0100871 -0.0203089 -0.0100731 -0.0100871 0 -0.0100731 0 0 0.0100871 0 0.0100731 0.0100871 0.0203387 0.0100731 0.0203089 0.0203387 0.0308836 0.0203089 0.0308353 0.0308836 0.0417723 0.0308353 0.0417033 0.0417723 0.052924 0.0417033 0.0528352 0.052924 0.0640655 0.0528352 0.0639641 0.0640655 0.0746748 0.0639641 0.0745778 0.0746748 0.0839502 0.0745778 0.0838883 0.0839502 0.0908328 0.0838883 0.0908532 0.0908328 0.0941053 0.0908532 0.0942729 0.0941053 0.0925839 0.0942729 0.0929754 0.0925839 0.0854287 0.0929754 0.0861125 0.0854287 0.07264 0.0861125 0.0736269 0.07264 0.0558274 0.0736269 0.0569984 0.0558274 0.0392188 0.0569984 0.0402943 0.0392188 0.0303854 0.0402943 0.0310556 0.0303854 0.0384889 0.0310556 0.0386849 0.0384889 0.0646032 0.0386849 0.0645427 0.0646032 0.0895266 0.0645427 0.089218 0.0895266 0.0945088 0.089218 0.0937687 0.0945088 0.0807967 0.0937687 0.0797454 0.0807967 0.0568218 0.0797454 0.0558292 0.0568218 0.0289043 0.0558292 0.0283172 0.0289043 1.63925e-16 0.0283172 1.36179e-16 1.36179e-16 -0.0283172 9.6807e-17 -0.0266235 -0.0283172 -0.0558292 -0.0266235 -0.0529358 -0.0558292 -0.0797454 -0.0529358 -0.0766433 -0.0797454 -0.0937687 -0.0766433 -0.0915906 -0.0937687 -0.089218 -0.0915906 -0.0883722 -0.089218 -0.0645427 -0.0883722 -0.0643776 -0.0645427 -0.0386849 -0.0643776 -0.0392099 -0.0386849 -0.0310556 -0.0392099 -0.0330097 -0.0310556 -0.0402943 -0.0330097 -0.0434183 -0.0402943 -0.0569984 -0.0434183 -0.0603361 -0.0569984 -0.0736269 -0.0603361 -0.0763887 -0.0736269 -0.0861125 -0.0763887 -0.0879963 -0.0861125 -0.0929754 -0.0879963 -0.0940372 -0.0929754 -0.0942729 -0.0940372 -0.0947145 -0.0942729 -0.0908532 -0.0947145 -0.0908917 -0.0908532 -0.0838883 -0.0908917 -0.0837034 -0.0838883 -0.0745778 -0.0837034 -0.0743001 -0.0745778 -0.0639641 -0.0743001 -0.0636776 -0.0639641 -0.0528352 -0.0636776 -0.0525863 -0.0528352 -0.0417033 -0.0525863 -0.0415109 -0.0417033 -0.0308353 -0.0415109 -0.0307013 -0.0308353 -0.0203089 -0.0307013 -0.0202267 -0.0203089 -0.0100731 -0.0202267 -0.0100346 -0.0100731 0 -0.0100346 0 0 0.0100731 0 0.0100346 0.0100731 0.0203089 0.0100346 0.0202267 0.0203089 0.0308353 0.0202267 0.0307013 0.0308353 0.0417033 0.0307013 0.0415109 0.0417033 0.0528352 0.0415109 0.0525863 0.0528352 0.0639641 0.0525863 0.0636776 0.0639641 0.0745778 0.0636776 0.0743001 0.0745778 0.0838883 0.0743001 0.0837034 0.0838883 0.0908532 0.0837034 0.0908917 0.0908532 0.0942729 0.0908917 0.0947145 0.0942729 0.0929754 0.0947145 0.0940372 0.0929754 0.0861125 0.0940372 0.0879963 0.0861125 0.0736269 0.0879963 0.0763887 0.0736269 0.0569984 0.0763887 0.0603361 0.0569984 0.0402943 0.0603361 0.0434183 0.0402943 0.0310556 0.0434183 0.0330097 0.0310556 0.0386849 0.0330097 0.0392099 0.0386849 0.0645427 0.0392099 0.0643776 0.0645427 0.089218 0.0643776 0.0883722 0.089218 0.0937687 0.0883722 0.0915906 0.0937687 0.0797454 0.0915906 0.0766433 0.0797454 0.0558292 0.0766433 0.0529358 0.0558292 0.0283172 0.0529358 0.0266235 0.0283172 1.36179e-16 0.0266235 9.6807e-17 9.6807e-17 -0.0266235 8.54707e-17 -0.0239168 -0.0266235 -0.0529358 -0.0239168 -0.0482556 -0.0529358 -0.0766433 -0.0482556 -0.0715501 -0.0766433 -0.0915906 -0.0715501 -0.0879977 -0.0915906 -0.0883722 -0.0879977 -0.0870406 -0.0883722 -0.0643776 -0.0870406 -0.0641236 -0.0643776 -0.0392099 -0.0641236 -0.040034 -0.0392099 -0.0330097 -0.040034 -0.036221 -0.0330097 -0.0434183 -0.036221 -0.0484879 -0.0434183 -0.0603361 -0.0484879 -0.0656335 -0.0603361 -0.0763887 -0.0656335 -0.080682 -0.0763887 -0.0879963 -0.080682 -0.0908771 -0.0879963 -0.0940372 -0.0908771 -0.0956373 -0.0940372 -0.0947145 -0.0956373 -0.0953635 -0.0947145 -0.0908917 -0.0953635 -0.0909277 -0.0908917 -0.0837034 -0.0909277 -0.0834029 -0.0837034 -0.0743001 -0.0834029 -0.0738626 -0.0743001 -0.0636776 -0.0738626 -0.0632311 -0.0636776 -0.0525863 -0.0632311 -0.0522007 -0.0525863 -0.0415109 -0.0522007 -0.0412144 -0.0415109 -0.0307013 -0.0412144 -0.0304955 -0.0307013 -0.0202267 -0.0304955 -0.0201009 -0.0202267 -0.0100346 -0.0201009 -0.00997578 -0.0100346 0 -0.00997578 0 0 0.0100346 0 0.00997578 0.0100346 0.0202267 0.00997578 0.0201009 0.0202267 0.0307013 0.0201009 0.0304955 0.0307013 0.0415109 0.0304955 0.0412144 0.0415109 0.0525863 0.0412144 0.0522007 0.0525863 0.0636776 0.0522007 0.0632311 0.0636776 0.0743001 0.0632311 0.0738626 0.0743001 0.0837034 0.0738626 0.0834029 0.0837034 0.0908917 0.0834029 0.0909277 0.0908917 0.0947145 0.0909277 0.0953635 0.0947145 0.0940372 0.0953635 0.0956373 0.0940372 0.0879963 0.0956373 0.0908771 0.0879963 0.0763887 0.0908771 0.080682 0.0763887 0.0603361 0.080682 0.0656335 0.0603361 0.0434183 0.0656335 0.0484879 0.0434183 0.0330097 0.0484879 0.036221 0.0330097 0.0392099 0.036221 0.040034 0.0392099 0.0643776 0.040034 0.0641236 0.0643776 0.0883722 0.0641236 0.0870406 0.0883722 0.0915906 0.0870406 0.0879977 0.0915906 0.0766433 0.0879977 0.0715501 0.0766433 0.0529358 0.0715501 0.0482556 0.0529358 0.0266235 0.0482556 0.0239168 0.0266235 9.6807e-17 0.0239168 8.54707e-17 8.54707e-17 -0.0239168 8.05135e-17 -0.0202636 -0.0239168 -0.0482556 -0.0202636 -0.0418162 -0.0482556 -0.0715501 -0.0418162 -0.0643506 -0.0715501 -0.0879977 -0.0643506 -0.0827975 -0.0879977 -0.0870406 -0.0827975 -0.0851449 -0.0870406 -0.0641236 -0.0851449 -0.0637916 -0.0641236 -0.040034 -0.0637916 -0.0412424 -0.040034 -0.036221 -0.0412424 -0.0408607 -0.036221 -0.0484879 -0.0408607 -0.0555571 -0.0484879 -0.0656335 -0.0555571 -0.0727508 -0.0656335 -0.080682 -0.0727508 -0.0862715 -0.080682 -0.0908771 -0.0862715 -0.0945354 -0.0908771 -0.0956373 -0.0945354 -0.09762 -0.0956373 -0.0953635 -0.09762 -0.0961288 -0.0953635 -0.0909277 -0.0961288 -0.0909197 -0.0909277 -0.0834029 -0.0909197 -0.082978 -0.0834029 -0.0738626 -0.082978 -0.0732753 -0.0738626 -0.0632311 -0.0732753 -0.0626432 -0.0632311 -0.0522007 -0.0626432 -0.0516993 -0.0522007 -0.0412144 -0.0516993 -0.0408323 -0.0412144 -0.0304955 -0.0408323 -0.0302327 -0.0304955 -0.0201009 -0.0302327 -0.0199414 -0.0201009 -0.00997578 -0.0199414 -0.00990161 -0.00997578 0 -0.00990161 0 0 0.00997578 0 0.00990161 0.00997578 0.0201009 0.00990161 0.0199414 0.0201009 0.0304955 0.0199414 0.0302327 0.0304955 0.0412144 0.0302327 0.0408323 0.0412144 0.0522007 0.0408323 0.0516993 0.0522007 0.0632311 0.0516993 0.0626432 0.0632311 0.0738626 0.0626432 0.0732753 0.0738626 0.0834029 0.0732753 0.082978 0.0834029 0.0909277 0.082978 0.0909197 0.0909277 0.0953635 0.0909197 0.0961288 0.0953635 0.0956373 0.0961288 0.09762 0.0956373 0.0908771 0.09762 0.0945354 0.0908771 0.080682 0.0945354 0.0862715 0.080682 0.0656335 0.0862715 0.0727508 0.0656335 0.0484879 0.0727508 0.0555571 0.0484879 0.036221 0.0555571 0.0408607 0.036221 0.040034 0.0408607 0.0412424 0.040034 0.0641236 0.0412424 0.0637916 0.0641236 0.0870406 0.0637916 0.0851449 0.0870406 0.0879977 0.0851449 0.0827975 0.0879977 0.0715501 0.0827975 0.0643506 0.0715501 0.0482556 0.0643506 0.0418162 0.0482556 0.0239168 0.0418162 0.0202636 0.0239168 8.54707e-17 0.0202636 8.05135e-17 8.05135e-17 -0.0202636 7.68692e-17 -0.0157308 -0.0202636 -0.0418162 -0.0157308 -0.0336076 -0.0418162 -0.0643506 -0.0336076 -0.0547914 -0.0643506 -0.0827975 -0.0547914 -0.0755842 -0.0827975 -0.0851449 -0.0755842 -0.0824745 -0.0851449 -0.0637916 -0.0824745 -0.0633889 -0.0637916 -0.0412424 -0.0633889 -0.0430424 -0.0412424 -0.0408607 -0.0430424 -0.0473022 -0.0408607 -0.0555571 -0.0473022 -0.0648101 -0.0555571 -0.0727508 -0.0648101 -0.081581 -0.0727508 -0.0862715 -0.081581 -0.0929135 -0.0862715 -0.0945354 -0.0929135 -0.0987366 -0.0945354 -0.09762 -0.0987366 -0.0998132 -0.09762 -0.0961288 -0.0998132 -0.0969031 -0.0961288 -0.0909197 -0.0969031 -0.0908117 -0.0909197 -0.082978 -0.0908117 -0.0824087 -0.082978 -0.0732753 -0.0824087 -0.0725409 -0.0732753 -0.0626432 -0.0725409 -0.0619286 -0.0626432 -0.0516993 -0.0619286 -0.0511008 -0.0516993 -0.0408323 -0.0511008 -0.0403833 -0.0408323 -0.0302327 -0.0403833 -0.0299279 -0.0302327 -0.0199414 -0.0299279 -0.0197587 -0.0199414 -0.00990161 -0.0197587 -0.00981738 -0.00990161 0 -0.00981738 0 0 0.00990161 0 0.00981738 0.00990161 0.0199414 0.00981738 0.0197587 0.0199414 0.0302327 0.0197587 0.0299279 0.0302327 0.0408323 0.0299279 0.0403833 0.0408323 0.0516993 0.0403833 0.0511008 0.0516993 0.0626432 0.0511008 0.0619286 0.0626432 0.0732753 0.0619286 0.0725409 0.0732753 0.082978 0.0725409 0.0824087 0.082978 0.0909197 0.0824087 0.0908117 0.0909197 0.0961288 0.0908117 0.0969031 0.0961288 0.09762 0.0969031 0.0998132 0.09762 0.0945354 0.0998132 0.0987366 0.0945354 0.0862715 0.0987366 0.0929135 0.0862715 0.0727508 0.0929135 0.081581 0.0727508 0.0555571 0.081581 0.0648101 0.0555571 0.0408607 0.0648101 0.0473022 0.0408607 0.0412424 0.0473022 0.0430424 0.0412424 0.0637916 0.0430424 0.0633889 0.0637916 0.0851449 0.0633889 0.0824745 0.0851449 0.0827975 0.0824745 0.0755842 0.0827975 0.0643506 0.0755842 0.0547914 0.0643506 0.0418162 0.0547914 0.0336076 0.0418162 0.0202636 0.0336076 0.0157308 0.0202636 8.05135e-17 0.0157308 7.68692e-17 7.68692e-17 -0.0157308 7.24642e-17 -0.0104144 -0.0157308 -0.0336076 -0.0104144 -0.0236429 -0.0336076 -0.0547914 -0.0236429 -0.0425297 -0.0547914 -0.0755842 -0.0425297 -0.0657171 -0.0755842 -0.0824745 -0.0657171 -0.0786482 -0.0824745 -0.0633889 -0.0786482 -0.0629216 -0.0633889 -0.0430424 -0.0629216 -0.0458035 -0.0430424 -0.0473022 -0.0458035 -0.0561486 -0.0473022 -0.0648101 -0.0561486 -0.0765238 -0.0648101 -0.081581 -0.0765238 -0.0919998 -0.081581 -0.0929135 -0.0919998 -0.100336 -0.0929135 -0.0987366 -0.100336 -0.103231 -0.0987366 -0.0998132 -0.103231 -0.102034 -0.0998132 -0.0969031 -0.102034 -0.0975686 -0.0969031 -0.0908117 -0.0975686 -0.0905386 -0.0908117 -0.0824087 -0.0905386 -0.0816678 -0.0824087 -0.0725409 -0.0816678 -0.0716569 -0.0725409 -0.0619286 -0.0716569 -0.061099 -0.0619286 -0.0511008 -0.061099 -0.0504231 -0.0511008 -0.0403833 -0.0504231 -0.0398855 -0.0403833 -0.0299279 -0.0398855 -0.0295968 -0.0299279 -0.0197587 -0.0295968 -0.0195636 -0.0197587 -0.00981738 -0.0195636 -0.00972869 -0.00981738 0 -0.00972869 0 0 0.00981738 0 0.00972869 0.00981738 0.0197587 0.00972869 0.0195636 0.0197587 0.0299279 0.0195636 0.0295968 0.0299279 0.0403833 0.0295968 0.0398855 0.0403833 0.0511008 0.0398855 0.0504231 0.0511008 0.0619286 0.0504231 0.061099 0.0619286 0.0725409 0.061099 0.0716569 0.0725409 0.0824087 0.0716569 0.0816678 0.0824087 0.0908117 0.0816678 0.0905386 0.0908117 0.0969031 0.0905386 0.0975686 0.0969031 0.0998132 0.0975686 0.102034 0.0998132 0.0987366 0.102034 0.103231 0.0987366 0.0929135 0.103231 0.100336 0.0929135 0.081581 0.100336 0.0919998 0.081581 0.0648101 0.0919998 0.0765238 0.0648101 0.0473022 0.0765238 0.0561486 0.0473022 0.0430424 0.0561486 0.0458035 0.0430424 0.0633889 0.0458035 0.0629216 0.0633889 0.0824745 0.0629216 0.0786482 0.0824745 0.0755842 0.0786482 0.0657171 0.0755842 0.0547914 0.0657171 0.0425297 0.0547914 0.0336076 0.0425297 0.0236429 0.0336076 0.0157308 0.0236429 0.0104144 0.0157308 7.68692e-17 0.0104144 7.24642e-17 7.24642e-17 -0.0104144 6.83364e-17 -0.00445957 -0.0104144 -0.0236429 -0.00445957 -0.0120281 -0.0236429 -0.0425297 -0.0120281 -0.0272054 -0.0425297 -0.0657171 -0.0272054 -0.0522767 -0.0657171 -0.0786482 -0.0522767 -0.0730287 -0.0786482 -0.0629216 -0.0730287 -0.0623946 -0.0629216 -0.0458035 -0.0623946 -0.0501452 -0.0458035 -0.0561486 -0.0501452 -0.0682849 -0.0561486 -0.0765238 -0.0682849 -0.091007 -0.0765238 -0.0919998 -0.091007 -0.103806 -0.0919998 -0.100336 -0.103806 -0.108225 -0.100336 -0.103231 -0.108225 -0.107756 -0.103231 -0.102034 -0.107756 -0.104095 -0.102034 -0.0975686 -0.104095 -0.0980023 -0.0975686 -0.0905386 -0.0980023 -0.0900301 -0.0905386 -0.0816678 -0.0900301 -0.0807246 -0.0816678 -0.0716569 -0.0807246 -0.0706189 -0.0716569 -0.061099 -0.0706189 -0.0601653 -0.061099 -0.0504231 -0.0601653 -0.0496841 -0.0504231 -0.0398855 -0.0496841 -0.0393578 -0.0398855 -0.0295968 -0.0393578 -0.0292552 -0.0295968 -0.0195636 -0.0292552 -0.0193677 -0.0195636 -0.00972869 -0.0193677 -0.00964135 -0.00972869 0 -0.00964135 0 0 0.00972869 0 0.00964135 0.00972869 0.0195636 0.00964135 0.0193677 0.0195636 0.0295968 0.0193677 0.0292552 0.0295968 0.0398855 0.0292552 0.0393578 0.0398855 0.0504231 0.0393578 0.0496841 0.0504231 0.061099 0.0496841 0.0601653 0.061099 0.0716569 0.0601653 0.0706189 0.0716569 0.0816678 0.0706189 0.0807246 0.0816678 0.0905386 0.0807246 0.0900301 0.0905386 0.0975686 0.0900301 0.0980023 0.0975686 0.102034 0.0980023 0.104095 0.102034 0.103231 0.104095 0.107756 0.103231 0.100336 0.107756 0.108225 0.100336 0.0919998 0.108225 0.103806 0.0919998 0.0765238 0.103806 0.091007 0.0765238 0.0561486 0.091007 0.0682849 0.0561486 0.0458035 0.0682849 0.0501452 0.0458035 0.0629216 0.0501452 0.0623946 0.0629216 0.0786482 0.0623946 0.0730287 0.0786482 0.0657171 0.0730287 0.0522767 0.0657171 0.0425297 0.0522767 0.0272054 0.0425297 0.0236429 0.0272054 0.0120281 0.0236429 0.0104144 0.0120281 0.00445957 0.0104144 7.24642e-17 0.00445957 6.83364e-17 6.83364e-17 -0.00445957 5.97956e-17 0.00193622 -0.00445957 -0.0120281 0.00193622 0.000962393 -0.0120281 -0.0272054 0.000962393 -0.00857402 -0.0272054 -0.0522767 -0.00857402 -0.0340111 -0.0522767 -0.0730287 -0.0340111 -0.0645615 -0.0730287 -0.0623946 -0.0645615 -0.0618131 -0.0623946 -0.0501452 -0.0618131 -0.0571004 -0.0501452 -0.0682849 -0.0571004 -0.0849442 -0.0682849 -0.091007 -0.0849442 -0.108478 -0.091007 -0.103806 -0.108478 -0.116647 -0.103806 -0.108225 -0.116647 -0.116219 -0.108225 -0.107756 -0.116219 -0.112046 -0.107756 -0.104095 -0.112046 -0.105804 -0.104095 -0.0980023 -0.105804 -0.0980795 -0.0980023 -0.0900301 -0.0980795 -0.0892151 -0.0900301 -0.0807246 -0.0892151 -0.0795474 -0.0807246 -0.0706189 -0.0795474 -0.0694226 -0.0706189 -0.0601653 -0.0694226 -0.0591389 -0.0601653 -0.0496841 -0.0591389 -0.0489023 -0.0496841 -0.0393578 -0.0489023 -0.0388197 -0.0393578 -0.0292552 -0.0388197 -0.0289199 -0.0292552 -0.0193677 -0.0289199 -0.0191825 -0.0193677 -0.00964135 -0.0191825 -0.00956137 -0.00964135 0 -0.00956137 0 0 0.00964135 0 0.00956137 0.00964135 0.0193677 0.00956137 0.0191825 0.0193677 0.0292552 0.0191825 0.0289199 0.0292552 0.0393578 0.0289199 0.0388197 0.0393578 0.0496841 0.0388197 0.0489023 0.0496841 0.0601653 0.0489023 0.0591389 0.0601653 0.0706189 0.0591389 0.0694226 0.0706189 0.0807246 0.0694226 0.0795474 0.0807246 0.0900301 0.0795474 0.0892151 0.0900301 0.0980023 0.0892151 0.0980795 0.0980023 0.104095 0.0980795 0.105804 0.104095 0.107756 0.105804 0.112046 0.107756 0.108225 0.112046 0.116219 0.108225 0.103806 0.116219 0.116647 0.103806 0.091007 0.116647 0.108478 0.091007 0.0682849 0.108478 0.0849442 0.0682849 0.0501452 0.0849442 0.0571004 0.0501452 0.0623946 0.0571004 0.0618131 0.0623946 0.0730287 0.0618131 0.0645615 0.0730287 0.0522767 0.0645615 0.0340111 0.0522767 0.0272054 0.0340111 0.00857402 0.0272054 0.0120281 0.00857402 -0.000962393 0.0120281 0.00445957 -0.000962393 -0.00193622 0.00445957 6.83364e-17 -0.00193622 5.97956e-17 5.97956e-17 0.00193622 5.41589e-17 0.00854724 0.00193622 0.000962393 0.00854724 0.0148381 0.000962393 -0.00857402 0.0148381 0.0132499 -0.00857402 -0.0340111 0.0132499 -0.00931062 -0.0340111 -0.0645615 -0.00931062 -0.0514644 -0.0645615 -0.0618131 -0.0514644 -0.0611812 -0.0618131 -0.0571004 -0.0611812 -0.0684319 -0.0571004 -0.0849442 -0.0684319 -0.107753 -0.0849442 -0.108478 -0.107753 -0.128829 -0.108478 -0.116647 -0.128829 -0.12997 -0.116647 -0.116219 -0.12997 -0.123935 -0.116219 -0.112046 -0.123935 -0.115833 -0.112046 -0.105804 -0.115833 -0.106974 -0.105804 -0.0980795 -0.106974 -0.0976778 -0.0980795 -0.0892151 -0.0976778 -0.0880242 -0.0892151 -0.0795474 -0.0880242 -0.0781069 -0.0795474 -0.0694226 -0.0781069 -0.0680655 -0.0694226 -0.0591389 -0.0680655 -0.0580334 -0.0591389 -0.0489023 -0.0580334 -0.0480978 -0.0489023 -0.0388197 -0.0480978 -0.0382916 -0.0388197 -0.0289199 -0.0382916 -0.0286081 -0.0289199 -0.0191825 -0.0286081 -0.0190201 -0.0191825 -0.00956137 -0.0190201 -0.00949488 -0.00956137 0 -0.00949488 0 0 0.00956137 0 0.00949488 0.00956137 0.0191825 0.00949488 0.0190201 0.0191825 0.0289199 0.0190201 0.0286081 0.0289199 0.0388197 0.0286081 0.0382916 0.0388197 0.0489023 0.0382916 0.0480978 0.0489023 0.0591389 0.0480978 0.0580334 0.0591389 0.0694226 0.0580334 0.0680655 0.0694226 0.0795474 0.0680655 0.0781069 0.0795474 0.0892151 0.0781069 0.0880242 0.0892151 0.0980795 0.0880242 0.0976778 0.0980795 0.105804 0.0976778 0.106974 0.105804 0.112046 0.106974 0.115833 0.112046 0.116219 0.115833 0.123935 0.116219 0.116647 0.123935 0.12997 0.116647 0.108478 0.12997 0.128829 0.108478 0.0849442 0.128829 0.107753 0.0849442 0.0571004 0.107753 0.0684319 0.0571004 0.0618131 0.0684319 0.0611812 0.0618131 0.0645615 0.0611812 0.0514644 0.0645615 0.0340111 0.0514644 0.00931062 0.0340111 0.00857402 0.00931062 -0.0132499 0.00857402 -0.000962393 -0.0132499 -0.0148381 -0.000962393 -0.00193622 -0.0148381 -0.00854724 -0.00193622 5.97956e-17 -0.00854724 5.41589e-17 5.41589e-17 0.00854724 5.39267e-17 0.0151571 0.00854724 0.0148381 0.0151571 0.0289461 0.0148381 0.0132499 0.0289461 0.0373937 0.0132499 -0.00931062 0.0373937 0.0236153 -0.00931062 -0.0514644 0.0236153 -0.0305579 -0.0514644 -0.0611812 -0.0305579 -0.0605044 -0.0611812 -0.0684319 -0.0605044 -0.0873179 -0.0684319 -0.107753 -0.0873179 -0.138583 -0.107753 -0.128829 -0.138583 -0.151215 -0.128829 -0.12997 -0.151215 -0.143065 -0.12997 -0.123935 -0.143065 -0.130998 -0.123935 -0.115833 -0.130998 -0.118851 -0.115833 -0.106974 -0.118851 -0.107419 -0.106974 -0.0976778 -0.107419 -0.09668 -0.0976778 -0.0880242 -0.09668 -0.0863925 -0.0880242 -0.0781069 -0.0863925 -0.0763781 -0.0781069 -0.0680655 -0.0763781 -0.0665495 -0.0680655 -0.0580334 -0.0665495 -0.0568656 -0.0580334 -0.0480978 -0.0568656 -0.0472932 -0.0480978 -0.0382916 -0.0472932 -0.0377957 -0.0382916 -0.0286081 -0.0377957 -0.0283376 -0.0286081 -0.0190201 -0.0283376 -0.018893 -0.0190201 -0.00949488 -0.018893 -0.00944807 -0.00949488 0 -0.00944807 0 0 0.00949488 0 0.00944807 0.00949488 0.0190201 0.00944807 0.018893 0.0190201 0.0286081 0.018893 0.0283376 0.0286081 0.0382916 0.0283376 0.0377957 0.0382916 0.0480978 0.0377957 0.0472932 0.0480978 0.0580334 0.0472932 0.0568656 0.0580334 0.0680655 0.0568656 0.0665495 0.0680655 0.0781069 0.0665495 0.0763781 0.0781069 0.0880242 0.0763781 0.0863925 0.0880242 0.0976778 0.0863925 0.09668 0.0976778 0.106974 0.09668 0.107419 0.106974 0.115833 0.107419 0.118851 0.115833 0.123935 0.118851 0.130998 0.123935 0.12997 0.130998 0.143065 0.12997 0.128829 0.143065 0.151215 0.128829 0.107753 0.151215 0.138583 0.107753 0.0684319 0.138583 0.0873179 0.0684319 0.0611812 0.0873179 0.0605044 0.0611812 0.0514644 0.0605044 0.0305579 0.0514644 0.00931062 0.0305579 -0.0236153 0.00931062 -0.0132499 -0.0236153 -0.0373937 -0.0132499 -0.0148381 -0.0373937 -0.0289461 -0.0148381 -0.00854724 -0.0289461 -0.0151571 -0.00854724 5.41589e-17 -0.0151571 5.39267e-17 5.39267e-17 0.0151571 5.21289e-17 0.0215514 0.0151571 0.0289461 0.0215514 0.0427144 0.0289461 0.0373937 0.0427144 0.0618711 0.0373937 0.0236153 0.0618711 0.065555 0.0236153 -0.0305579 0.065555 0.0044946 -0.0305579 -0.0