# vtk DataFile Version 3.0
#This file was generated by the deal.II library on 2017/9/27 at 13:17:41
ASCII
DATASET UNSTRUCTURED_GRID

POINTS 2688 double
-5.63207 0 0
-5.3974 0 0
-5.63207 0.0714286 0
-5.3974 0.0714286 0
-5.3974 0 0
-5.16273 0 0
-5.3974 0.0714286 0
-5.16273 0.0714286 0
-5.16273 0 0
-4.92806 0 0
-5.16273 0.0714286 0
-4.92806 0.0714286 0
-4.92806 0 0
-4.69339 0 0
-4.92806 0.0714286 0
-4.69339 0.0714286 0
-4.69339 0 0
-4.45872 0 0
-4.69339 0.0714286 0
-4.45872 0.0714286 0
-4.45872 0 0
-4.22405 0 0
-4.45872 0.0714286 0
-4.22405 0.0714286 0
-4.22405 0 0
-3.98938 0 0
-4.22405 0.0714286 0
-3.98938 0.0714286 0
-3.98938 0 0
-3.75472 0 0
-3.98938 0.0714286 0
-3.75472 0.0714286 0
-3.75472 0 0
-3.52005 0 0
-3.75472 0.0714286 0
-3.52005 0.0714286 0
-3.52005 0 0
-3.28538 0 0
-3.52005 0.0714286 0
-3.28538 0.0714286 0
-3.28538 0 0
-3.05071 0 0
-3.28538 0.0714286 0
-3.05071 0.0714286 0
-3.05071 0 0
-2.81604 0 0
-3.05071 0.0714286 0
-2.81604 0.0714286 0
-2.81604 0 0
-2.58137 0 0
-2.81604 0.0714286 0
-2.58137 0.0714286 0
-2.58137 0 0
-2.3467 0 0
-2.58137 0.0714286 0
-2.3467 0.0714286 0
-2.3467 0 0
-2.11203 0 0
-2.3467 0.0714286 0
-2.11203 0.0714286 0
-2.11203 0 0
-1.87736 0 0
-2.11203 0.0714286 0
-1.87736 0.0714286 0
-1.87736 0 0
-1.64269 0 0
-1.87736 0.0714286 0
-1.64269 0.0714286 0
-1.64269 0 0
-1.40802 0 0
-1.64269 0.0714286 0
-1.40802 0.0714286 0
-1.40802 0 0
-1.17335 0 0
-1.40802 0.0714286 0
-1.17335 0.0714286 0
-1.17335 0 0
-0.938679 0 0
-1.17335 0.0714286 0
-0.938679 0.0714286 0
-0.938679 0 0
-0.704009 0 0
-0.938679 0.0714286 0
-0.704009 0.0714286 0
-0.704009 0 0
-0.469339 0 0
-0.704009 0.0714286 0
-0.469339 0.0714286 0
-0.469339 0 0
-0.23467 0 0
-0.469339 0.0714286 0
-0.23467 0.0714286 0
-0.23467 0 0
0 0 0
-0.23467 0.0714286 0
0 0.0714286 0
0 0 0
0.23467 0 0
0 0.0714286 0
0.23467 0.0714286 0
0.23467 0 0
0.469339 0 0
0.23467 0.0714286 0
0.469339 0.0714286 0
0.469339 0 0
0.704009 0 0
0.469339 0.0714286 0
0.704009 0.0714286 0
0.704009 0 0
0.938679 0 0
0.704009 0.0714286 0
0.938679 0.0714286 0
0.938679 0 0
1.17335 0 0
0.938679 0.0714286 0
1.17335 0.0714286 0
1.17335 0 0
1.40802 0 0
1.17335 0.0714286 0
1.40802 0.0714286 0
1.40802 0 0
1.64269 0 0
1.40802 0.0714286 0
1.64269 0.0714286 0
1.64269 0 0
1.87736 0 0
1.64269 0.0714286 0
1.87736 0.0714286 0
1.87736 0 0
2.11203 0 0
1.87736 0.0714286 0
2.11203 0.0714286 0
2.11203 0 0
2.3467 0 0
2.11203 0.0714286 0
2.3467 0.0714286 0
2.3467 0 0
2.58137 0 0
2.3467 0.0714286 0
2.58137 0.0714286 0
2.58137 0 0
2.81604 0 0
2.58137 0.0714286 0
2.81604 0.0714286 0
2.81604 0 0
3.05071 0 0
2.81604 0.0714286 0
3.05071 0.0714286 0
3.05071 0 0
3.28538 0 0
3.05071 0.0714286 0
3.28538 0.0714286 0
3.28538 0 0
3.52005 0 0
3.28538 0.0714286 0
3.52005 0.0714286 0
3.52005 0 0
3.75472 0 0
3.52005 0.0714286 0
3.75472 0.0714286 0
3.75472 0 0
3.98938 0 0
3.75472 0.0714286 0
3.98938 0.0714286 0
3.98938 0 0
4.22405 0 0
3.98938 0.0714286 0
4.22405 0.0714286 0
4.22405 0 0
4.45872 0 0
4.22405 0.0714286 0
4.45872 0.0714286 0
4.45872 0 0
4.69339 0 0
4.45872 0.0714286 0
4.69339 0.0714286 0
4.69339 0 0
4.92806 0 0
4.69339 0.0714286 0
4.92806 0.0714286 0
4.92806 0 0
5.16273 0 0
4.92806 0.0714286 0
5.16273 0.0714286 0
5.16273 0 0
5.3974 0 0
5.16273 0.0714286 0
5.3974 0.0714286 0
5.3974 0 0
5.63207 0 0
5.3974 0.0714286 0
5.63207 0.0714286 0
-5.63207 0.0714286 0
-5.3974 0.0714286 0
-5.63207 0.142857 0
-5.3974 0.142857 0
-5.3974 0.0714286 0
-5.16273 0.0714286 0
-5.3974 0.142857 0
-5.16273 0.142857 0
-5.16273 0.0714286 0
-4.92806 0.0714286 0
-5.16273 0.142857 0
-4.92806 0.142857 0
-4.92806 0.0714286 0
-4.69339 0.0714286 0
-4.92806 0.142857 0
-4.69339 0.142857 0
-4.69339 0.0714286 0
-4.45872 0.0714286 0
-4.69339 0.142857 0
-4.45872 0.142857 0
-4.45872 0.0714286 0
-4.22405 0.0714286 0
-4.45872 0.142857 0
-4.22405 0.142857 0
-4.22405 0.0714286 0
-3.98938 0.0714286 0
-4.22405 0.142857 0
-3.98938 0.142857 0
-3.98938 0.0714286 0
-3.75472 0.0714286 0
-3.98938 0.142857 0
-3.75472 0.142857 0
-3.75472 0.0714286 0
-3.52005 0.0714286 0
-3.75472 0.142857 0
-3.52005 0.142857 0
-3.52005 0.0714286 0
-3.28538 0.0714286 0
-3.52005 0.142857 0
-3.28538 0.142857 0
-3.28538 0.0714286 0
-3.05071 0.0714286 0
-3.28538 0.142857 0
-3.05071 0.142857 0
-3.05071 0.0714286 0
-2.81604 0.0714286 0
-3.05071 0.142857 0
-2.81604 0.142857 0
-2.81604 0.0714286 0
-2.58137 0.0714286 0
-2.81604 0.142857 0
-2.58137 0.142857 0
-2.58137 0.0714286 0
-2.3467 0.0714286 0
-2.58137 0.142857 0
-2.3467 0.142857 0
-2.3467 0.0714286 0
-2.11203 0.0714286 0
-2.3467 0.142857 0
-2.11203 0.142857 0
-2.11203 0.0714286 0
-1.87736 0.0714286 0
-2.11203 0.142857 0
-1.87736 0.142857 0
-1.87736 0.0714286 0
-1.64269 0.0714286 0
-1.87736 0.142857 0
-1.64269 0.142857 0
-1.64269 0.0714286 0
-1.40802 0.0714286 0
-1.64269 0.142857 0
-1.40802 0.142857 0
-1.40802 0.0714286 0
-1.17335 0.0714286 0
-1.40802 0.142857 0
-1.17335 0.142857 0
-1.17335 0.0714286 0
-0.938679 0.0714286 0
-1.17335 0.142857 0
-0.938679 0.142857 0
-0.938679 0.0714286 0
-0.704009 0.0714286 0
-0.938679 0.142857 0
-0.704009 0.142857 0
-0.704009 0.0714286 0
-0.469339 0.0714286 0
-0.704009 0.142857 0
-0.469339 0.142857 0
-0.469339 0.0714286 0
-0.23467 0.0714286 0
-0.469339 0.142857 0
-0.23467 0.142857 0
-0.23467 0.0714286 0
0 0.0714286 0
-0.23467 0.142857 0
0 0.142857 0
0 0.0714286 0
0.23467 0.0714286 0
0 0.142857 0
0.23467 0.142857 0
0.23467 0.0714286 0
0.469339 0.0714286 0
0.23467 0.142857 0
0.469339 0.142857 0
0.469339 0.0714286 0
0.704009 0.0714286 0
0.469339 0.142857 0
0.704009 0.142857 0
0.704009 0.0714286 0
0.938679 0.0714286 0
0.704009 0.142857 0
0.938679 0.142857 0
0.938679 0.0714286 0
1.17335 0.0714286 0
0.938679 0.142857 0
1.17335 0.142857 0
1.17335 0.0714286 0
1.40802 0.0714286 0
1.17335 0.142857 0
1.40802 0.142857 0
1.40802 0.0714286 0
1.64269 0.0714286 0
1.40802 0.142857 0
1.64269 0.142857 0
1.64269 0.0714286 0
1.87736 0.0714286 0
1.64269 0.142857 0
1.87736 0.142857 0
1.87736 0.0714286 0
2.11203 0.0714286 0
1.87736 0.142857 0
2.11203 0.142857 0
2.11203 0.0714286 0
2.3467 0.0714286 0
2.11203 0.142857 0
2.3467 0.142857 0
2.3467 0.0714286 0
2.58137 0.0714286 0
2.3467 0.142857 0
2.58137 0.142857 0
2.58137 0.0714286 0
2.81604 0.0714286 0
2.58137 0.142857 0
2.81604 0.142857 0
2.81604 0.0714286 0
3.05071 0.0714286 0
2.81604 0.142857 0
3.05071 0.142857 0
3.05071 0.0714286 0
3.28538 0.0714286 0
3.05071 0.142857 0
3.28538 0.142857 0
3.28538 0.0714286 0
3.52005 0.0714286 0
3.28538 0.142857 0
3.52005 0.142857 0
3.52005 0.0714286 0
3.75472 0.0714286 0
3.52005 0.142857 0
3.75472 0.142857 0
3.75472 0.0714286 0
3.98938 0.0714286 0
3.75472 0.142857 0
3.98938 0.142857 0
3.98938 0.0714286 0
4.22405 0.0714286 0
3.98938 0.142857 0
4.22405 0.142857 0
4.22405 0.0714286 0
4.45872 0.0714286 0
4.22405 0.142857 0
4.45872 0.142857 0
4.45872 0.0714286 0
4.69339 0.0714286 0
4.45872 0.142857 0
4.69339 0.142857 0
4.69339 0.0714286 0
4.92806 0.0714286 0
4.69339 0.142857 0
4.92806 0.142857 0
4.92806 0.0714286 0
5.16273 0.0714286 0
4.92806 0.142857 0
5.16273 0.142857 0
5.16273 0.0714286 0
5.3974 0.0714286 0
5.16273 0.142857 0
5.3974 0.142857 0
5.3974 0.0714286 0
5.63207 0.0714286 0
5.3974 0.142857 0
5.63207 0.142857 0
-5.63207 0.142857 0
-5.3974 0.142857 0
-5.63207 0.214286 0
-5.3974 0.214286 0
-5.3974 0.142857 0
-5.16273 0.142857 0
-5.3974 0.214286 0
-5.16273 0.214286 0
-5.16273 0.142857 0
-4.92806 0.142857 0
-5.16273 0.214286 0
-4.92806 0.214286 0
-4.92806 0.142857 0
-4.69339 0.142857 0
-4.92806 0.214286 0
-4.69339 0.214286 0
-4.69339 0.142857 0
-4.45872 0.142857 0
-4.69339 0.214286 0
-4.45872 0.214286 0
-4.45872 0.142857 0
-4.22405 0.142857 0
-4.45872 0.214286 0
-4.22405 0.214286 0
-4.22405 0.142857 0
-3.98938 0.142857 0
-4.22405 0.214286 0
-3.98938 0.214286 0
-3.98938 0.142857 0
-3.75472 0.142857 0
-3.98938 0.214286 0
-3.75472 0.214286 0
-3.75472 0.142857 0
-3.52005 0.142857 0
-3.75472 0.214286 0
-3.52005 0.214286 0
-3.52005 0.142857 0
-3.28538 0.142857 0
-3.52005 0.214286 0
-3.28538 0.214286 0
-3.28538 0.142857 0
-3.05071 0.142857 0
-3.28538 0.214286 0
-3.05071 0.214286 0
-3.05071 0.142857 0
-2.81604 0.142857 0
-3.05071 0.214286 0
-2.81604 0.214286 0
-2.81604 0.142857 0
-2.58137 0.142857 0
-2.81604 0.214286 0
-2.58137 0.214286 0
-2.58137 0.142857 0
-2.3467 0.142857 0
-2.58137 0.214286 0
-2.3467 0.214286 0
-2.3467 0.142857 0
-2.11203 0.142857 0
-2.3467 0.214286 0
-2.11203 0.214286 0
-2.11203 0.142857 0
-1.87736 0.142857 0
-2.11203 0.214286 0
-1.87736 0.214286 0
-1.87736 0.142857 0
-1.64269 0.142857 0
-1.87736 0.214286 0
-1.64269 0.214286 0
-1.64269 0.142857 0
-1.40802 0.142857 0
-1.64269 0.214286 0
-1.40802 0.214286 0
-1.40802 0.142857 0
-1.17335 0.142857 0
-1.40802 0.214286 0
-1.17335 0.214286 0
-1.17335 0.142857 0
-0.938679 0.142857 0
-1.17335 0.214286 0
-0.938679 0.214286 0
-0.938679 0.142857 0
-0.704009 0.142857 0
-0.938679 0.214286 0
-0.704009 0.214286 0
-0.704009 0.142857 0
-0.469339 0.142857 0
-0.704009 0.214286 0
-0.469339 0.214286 0
-0.469339 0.142857 0
-0.23467 0.142857 0
-0.469339 0.214286 0
-0.23467 0.214286 0
-0.23467 0.142857 0
0 0.142857 0
-0.23467 0.214286 0
0 0.214286 0
0 0.142857 0
0.23467 0.142857 0
0 0.214286 0
0.23467 0.214286 0
0.23467 0.142857 0
0.469339 0.142857 0
0.23467 0.214286 0
0.469339 0.214286 0
0.469339 0.142857 0
0.704009 0.142857 0
0.469339 0.214286 0
0.704009 0.214286 0
0.704009 0.142857 0
0.938679 0.142857 0
0.704009 0.214286 0
0.938679 0.214286 0
0.938679 0.142857 0
1.17335 0.142857 0
0.938679 0.214286 0
1.17335 0.214286 0
1.17335 0.142857 0
1.40802 0.142857 0
1.17335 0.214286 0
1.40802 0.214286 0
1.40802 0.142857 0
1.64269 0.142857 0
1.40802 0.214286 0
1.64269 0.214286 0
1.64269 0.142857 0
1.87736 0.142857 0
1.64269 0.214286 0
1.87736 0.214286 0
1.87736 0.142857 0
2.11203 0.142857 0
1.87736 0.214286 0
2.11203 0.214286 0
2.11203 0.142857 0
2.3467 0.142857 0
2.11203 0.214286 0
2.3467 0.214286 0
2.3467 0.142857 0
2.58137 0.142857 0
2.3467 0.214286 0
2.58137 0.214286 0
2.58137 0.142857 0
2.81604 0.142857 0
2.58137 0.214286 0
2.81604 0.214286 0
2.81604 0.142857 0
3.05071 0.142857 0
2.81604 0.214286 0
[...]
POINT_DATA 2688
SCALARS x1_displacement double 1
LOOKUP_TABLE default
-3.53599e-17 -0.0174948 -2.14904e-17 -0.0173823 -0.0174948 -0.0320727 -0.0173823 -0.0318944 -0.0320727 -0.0406625 -0.0318944 -0.0404853 -0.0406625 -0.0403685 -0.0404853 -0.0402403 -0.0403685 -0.0298054 -0.0402403 -0.0297313 -0.0298054 -0.0112465 -0.0297313 -0.0112065 -0.0112465 0.00878739 -0.0112065 0.00879269 0.00878739 0.0230341 0.00879269 0.0229737 0.0230341 0.0278934 0.0229737 0.0277476 0.0278934 0.0239773 0.0277476 0.023769 0.0239773 0.0140586 0.023769 0.0138432 0.0140586 0.00133024 0.0138432 0.001163 0.00133024 -0.0113094 0.001163 -0.0113999 -0.0113094 -0.0213969 -0.0113999 -0.0214146 -0.0213969 -0.0269494 -0.0214146 -0.0269191 -0.0269494 -0.0267115 -0.0269191 -0.0266604 -0.0267115 -0.0206731 -0.0266604 -0.0206188 -0.0206731 -0.0105434 -0.0206188 -0.0104946 -0.0105434 0.00049882 -0.0104946 0.00053461 0.00049882 0.00906965 0.00053461 0.00908395 0.00906965 0.0130237 0.00908395 0.0130146 0.0130237 0.0120021 0.0130146 0.0119799 0.0120021 0.00705528 0.0119799 0.00703744 0.00705528 0 0.00703744 0 0 -0.00705528 0 -0.00703744 -0.00705528 -0.0120021 -0.00703744 -0.0119799 -0.0120021 -0.0130237 -0.0119799 -0.0130146 -0.0130237 -0.00906965 -0.0130146 -0.00908395 -0.00906965 -0.00049882 -0.00908395 -0.00053461 -0.00049882 0.0105434 -0.00053461 0.0104946 0.0105434 0.0206731 0.0104946 0.0206188 0.0206731 0.0267115 0.0206188 0.0266604 0.0267115 0.0269494 0.0266604 0.0269191 0.0269494 0.0213969 0.0269191 0.0214146 0.0213969 0.0113094 0.0214146 0.0113999 0.0113094 -0.00133024 0.0113999 -0.001163 -0.00133024 -0.0140586 -0.001163 -0.0138432 -0.0140586 -0.0239773 -0.0138432 -0.023769 -0.0239773 -0.0278934 -0.023769 -0.0277476 -0.0278934 -0.0230341 -0.0277476 -0.0229737 -0.0230341 -0.00878739 -0.0229737 -0.00879269 -0.00878739 0.0112465 -0.00879269 0.0112065 0.0112465 0.0298054 0.0112065 0.0297313 0.0298054 0.0403685 0.0297313 0.0402403 0.0403685 0.0406625 0.0402403 0.0404853 0.0406625 0.0320727 0.0404853 0.0318944 0.0320727 0.0174948 0.0318944 0.0173823 0.0174948 -3.53599e-17 0.0173823 -2.14904e-17 -2.14904e-17 -0.0173823 -1.65438e-17 -0.0170121 -0.0173823 -0.0318944 -0.0170121 -0.0313046 -0.0318944 -0.0404853 -0.0313046 -0.0398991 -0.0404853 -0.0402403 -0.0398991 -0.0398259 -0.0402403 -0.0297313 -0.0398259 -0.029507 -0.0297313 -0.0112065 -0.029507 -0.0110927 -0.0112065 0.00879269 -0.0110927 0.00880142 0.00879269 0.0229737 0.00880142 0.0227708 0.0229737 0.0277476 0.0227708 0.0272726 0.0277476 0.023769 0.0272726 0.0231114 0.023769 0.0138432 0.0231114 0.0131903 0.0138432 0.001163 0.0131903 0.000686103 0.001163 -0.0113999 0.000686103 -0.0116235 -0.0113999 -0.0214146 -0.0116235 -0.0214122 -0.0214146 -0.0269191 -0.0214122 -0.0267805 -0.0269191 -0.0266604 -0.0267805 -0.0264777 -0.0266604 -0.0206188 -0.0264777 -0.0204462 -0.0206188 -0.0104946 -0.0204462 -0.010353 -0.0104946 0.00053461 -0.010353 0.000626129 0.00053461 0.00908395 0.000626129 0.00910058 0.00908395 0.0130146 0.00910058 0.0129537 0.0130146 0.0119799 0.0129537 0.0118809 0.0119799 0.00703744 0.0118809 0.00696427 0.00703744 0 0.00696427 0 0 -0.00703744 0 -0.00696427 -0.00703744 -0.0119799 -0.00696427 -0.0118809 -0.0119799 -0.0130146 -0.0118809 -0.0129537 -0.0130146 -0.00908395 -0.0129537 -0.00910058 -0.00908395 -0.00053461 -0.00910058 -0.000626129 -0.00053461 0.0104946 -0.000626129 0.010353 0.0104946 0.0206188 0.010353 0.0204462 0.0206188 0.0266604 0.0204462 0.0264777 0.0266604 0.0269191 0.0264777 0.0267805 0.0269191 0.0214146 0.0267805 0.0214122 0.0214146 0.0113999 0.0214122 0.0116235 0.0113999 -0.001163 0.0116235 -0.000686103 -0.001163 -0.0138432 -0.000686103 -0.0131903 -0.0138432 -0.023769 -0.0131903 -0.0231114 -0.023769 -0.0277476 -0.0231114 -0.0272726 -0.0277476 -0.0229737 -0.0272726 -0.0227708 -0.0229737 -0.00879269 -0.0227708 -0.00880142 -0.00879269 0.0112065 -0.00880142 0.0110927 0.0112065 0.0297313 0.0110927 0.029507 0.0297313 0.0402403 0.029507 0.0398259 0.0402403 0.0404853 0.0398259 0.0398991 0.0404853 0.0318944 0.0398991 0.0313046 0.0318944 0.0173823 0.0313046 0.0170121 0.0173823 -2.14904e-17 0.0170121 -1.65438e-17 -1.65438e-17 -0.0170121 -1.76162e-17 -0.0163671 -0.0170121 -0.0313046 -0.0163671 -0.0302764 -0.0313046 -0.0398991 -0.0302764 -0.0388819 -0.0398991 -0.0398259 -0.0388819 -0.0391212 -0.0398259 -0.029507 -0.0391212 -0.029144 -0.029507 -0.0110927 -0.029144 -0.0109144 -0.0110927 0.00880142 -0.0109144 0.0088128 0.00880142 0.0227708 0.0088128 0.0224205 0.0227708 0.0272726 0.0224205 0.0264562 0.0272726 0.0231114 0.0264562 0.0219975 0.0231114 0.0131903 0.0219975 0.0121113 0.0131903 0.000686103 0.0121113 -6.88931e-05 0.000686103 -0.0116235 -6.88931e-05 -0.0119374 -0.0116235 -0.0214122 -0.0119374 -0.0213482 -0.0214122 -0.0267805 -0.0213482 -0.0265043 -0.0267805 -0.0264777 -0.0265043 -0.0261509 -0.0264777 -0.0204462 -0.0261509 -0.0201566 -0.0204462 -0.010353 -0.0201566 -0.0101272 -0.010353 0.000626129 -0.0101272 0.000761046 0.000626129 0.00910058 0.000761046 0.00910263 0.00910058 0.0129537 0.00910263 0.0128198 0.0129537 0.0118809 0.0128198 0.0116848 0.0118809 0.00696427 0.0116848 0.00682306 0.00696427 0 0.00682306 0 0 -0.00696427 0 -0.00682306 -0.00696427 -0.0118809 -0.00682306 -0.0116848 -0.0118809 -0.0129537 -0.0116848 -0.0128198 -0.0129537 -0.00910058 -0.0128198 -0.00910263 -0.00910058 -0.000626129 -0.00910263 -0.000761046 -0.000626129 0.010353 -0.000761046 0.0101272 0.010353 0.0204462 0.0101272 0.0201566 0.0204462 0.0264777 0.0201566 0.0261509 0.0264777 0.0267805 0.0261509 0.0265043 0.0267805 0.0214122 0.0265043 0.0213482 0.0214122 0.0116235 0.0213482 0.0119374 0.0116235 -0.000686103 0.0119374 6.88931e-05 -0.000686103 -0.0131903 6.88931e-05 -0.0121113 -0.0131903 -0.0231114 -0.0121113 -0.0219975 -0.0231114 -0.0272726 -0.0219975 -0.0264562 -0.0272726 -0.0227708 -0.0264562 -0.0224205 -0.0227708 -0.00880142 -0.0224205 -0.0088128 -0.00880142 0.0110927 -0.0088128 0.0109144 0.0110927 0.029507 0.0109144 0.029144 0.029507 0.0398259 0.029144 0.0391212 0.0398259 0.0398991 0.0391212 0.0388819 0.0398991 0.0313046 0.0388819 0.0302764 0.0313046 0.0170121 0.0302764 0.0163671 0.0170121 -1.65438e-17 0.0163671 -1.76162e-17 -1.76162e-17 -0.0163671 -1.7256e-17 -0.0154025 -0.0163671 -0.0302764 -0.0154025 -0.0287295 -0.0302764 -0.0388819 -0.0287295 -0.0373417 -0.0388819 -0.0391212 -0.0373417 -0.0380557 -0.0391212 -0.029144 -0.0380557 -0.0286114 -0.029144 -0.0109144 -0.0286114 -0.0106725 -0.0109144 0.0088128 -0.0106725 0.00879902 0.0088128 0.0224205 0.00879902 0.0218629 0.0224205 0.0264562 0.0218629 0.025221 0.0264562 0.0219975 0.025221 0.0203665 0.0219975 0.0121113 0.0203665 0.0105872 0.0121113 -6.88931e-05 0.0105872 -0.00107585 -6.88931e-05 -0.0119374 -0.00107585 -0.0122827 -0.0119374 -0.0213482 -0.0122827 -0.0211493 -0.0213482 -0.0265043 -0.0211493 -0.0260216 -0.0265043 -0.0261509 -0.0260216 -0.0256304 -0.0261509 -0.0201566 -0.0256304 -0.0197266 -0.0201566 -0.0101272 -0.0197266 -0.00981931 -0.0101272 0.000761046 -0.00981931 0.000914608 0.000761046 0.00910263 0.000914608 0.00904628 0.00910263 0.0128198 0.00904628 0.0125591 0.0128198 0.0116848 0.0125591 0.0113428 0.0116848 0.00682306 0.0113428 0.00658507 0.00682306 0 0.00658507 0 0 -0.00682306 0 -0.00658507 -0.00682306 -0.0116848 -0.00658507 -0.0113428 -0.0116848 -0.0128198 -0.0113428 -0.0125591 -0.0128198 -0.00910263 -0.0125591 -0.00904628 -0.00910263 -0.000761046 -0.00904628 -0.000914608 -0.000761046 0.0101272 -0.000914608 0.00981931 0.0101272 0.0201566 0.00981931 0.0197266 0.0201566 0.0261509 0.0197266 0.0256304 0.0261509 0.0265043 0.0256304 0.0260216 0.0265043 0.0213482 0.0260216 0.0211493 0.0213482 0.0119374 0.0211493 0.0122827 0.0119374 6.88931e-05 0.0122827 0.00107585 6.88931e-05 -0.0121113 0.00107585 -0.0105872 -0.0121113 -0.0219975 -0.0105872 -0.0203665 -0.0219975 -0.0264562 -0.0203665 -0.025221 -0.0264562 -0.0224205 -0.025221 -0.0218629 -0.0224205 -0.0088128 -0.0218629 -0.00879902 -0.0088128 0.0109144 -0.00879902 0.0106725 0.0109144 0.029144 0.0106725 0.0286114 0.029144 0.0391212 0.0286114 0.0380557 0.0391212 0.0388819 0.0380557 0.0373417 0.0388819 0.0302764 0.0373417 0.0287295 0.0302764 0.0163671 0.0287295 0.0154025 0.0163671 -1.76162e-17 0.0154025 -1.7256e-17 -1.7256e-17 -0.0154025 -1.64434e-17 -0.0140514 -0.0154025 -0.0287295 -0.0140514 -0.0265376 -0.0287295 -0.0373417 -0.0265376 -0.0351233 -0.0373417 -0.0380557 -0.0351233 -0.036498 -0.0380557 -0.0286114 -0.036498 -0.0278415 -0.0286114 -0.0106725 -0.0278415 -0.0103621 -0.0106725 0.00879902 -0.0103621 0.00870789 0.00879902 0.0218629 0.00870789 0.0209865 0.0218629 0.025221 0.0209865 0.0234294 0.025221 0.0203665 0.0234294 0.0181101 0.0203665 0.0105872 0.0181101 0.00857472 0.0105872 -0.00107585 0.00857472 -0.00231052 -0.00107585 -0.0122827 -0.00231052 -0.0125845 -0.0122827 -0.0211493 -0.0125845 -0.0207133 -0.0211493 -0.0260216 -0.0207133 -0.0252279 -0.0260216 -0.0256304 -0.0252279 -0.0248334 -0.0256304 -0.0197266 -0.0248334 -0.0191111 -0.0197266 -0.00981931 -0.0191111 -0.00942621 -0.00981931 0.000914608 -0.00942621 0.00105036 0.000914608 0.00904628 0.00105036 0.00886287 0.00904628 0.0125591 0.00886287 0.0120879 0.0125591 0.0113428 0.0120879 0.0107805 0.0113428 0.00658507 0.0107805 0.00620719 0.00658507 0 0.00620719 0 0 -0.00658507 0 -0.00620719 -0.00658507 -0.0113428 -0.00620719 -0.0107805 -0.0113428 -0.0125591 -0.0107805 -0.0120879 -0.0125591 -0.00904628 -0.0120879 -0.00886287 -0.00904628 -0.000914608 -0.00886287 -0.00105036 -0.000914608 0.00981931 -0.00105036 0.00942621 0.00981931 0.0197266 0.00942621 0.0191111 0.0197266 0.0256304 0.0191111 0.0248334 0.0256304 0.0260216 0.0248334 0.0252279 0.0260216 0.0211493 0.0252279 0.0207133 0.0211493 0.0122827 0.0207133 0.0125845 0.0122827 0.00107585 0.0125845 0.00231052 0.00107585 -0.0105872 0.00231052 -0.00857472 -0.0105872 -0.0203665 -0.00857472 -0.0181101 -0.0203665 -0.025221 -0.0181101 -0.0234294 -0.025221 -0.0218629 -0.0234294 -0.0209865 -0.0218629 -0.00879902 -0.0209865 -0.00870789 -0.00879902 0.0106725 -0.00870789 0.0103621 0.0106725 0.0286114 0.0103621 0.0278415 0.0286114 0.0380557 0.0278415 0.036498 0.0380557 0.0373417 0.036498 0.0351233 0.0373417 0.0287295 0.0351233 0.0265376 0.0287295 0.0154025 0.0265376 0.0140514 0.0154025 -1.7256e-17 0.0140514 -1.64434e-17 -1.64434e-17 -0.0140514 -1.48022e-17 -0.0122314 -0.0140514 -0.0265376 -0.0122314 -0.0235366 -0.0265376 -0.0351233 -0.0235366 -0.0320112 -0.0351233 -0.036498 -0.0320112 -0.0342543 -0.036498 -0.0278415 -0.0342543 -0.0267278 -0.0278415 -0.0103621 -0.0267278 -0.00997229 -0.0103621 0.00870789 -0.00997229 0.00846058 0.00870789 0.0209865 0.00846058 0.0196247 0.0209865 0.0234294 0.0196247 0.020883 0.0234294 0.0181101 0.020883 0.0150786 0.0181101 0.00857472 0.0150786 0.00601433 0.00857472 -0.00231052 0.00601433 -0.00374597 -0.00231052 -0.0125845 -0.00374597 -0.0127518 -0.0125845 -0.0207133 -0.0127518 -0.0199106 -0.0207133 -0.0252279 -0.0199106 -0.0239846 -0.0252279 -0.0248334 -0.0239846 -0.0236451 -0.0248334 -0.0191111 -0.0236451 -0.0182443 -0.0191111 -0.00942621 -0.0182443 -0.00894057 -0.00942621 0.00105036 -0.00894057 0.00111889 0.00105036 0.00886287 0.00111889 0.00845767 0.00886287 0.0120879 0.00845767 0.0112922 0.0120879 0.0107805 0.0112922 0.00989904 0.0107805 0.00620719 0.00989904 0.00563313 0.00620719 0 0.00563313 0 0 -0.00620719 0 -0.00563313 -0.00620719 -0.0107805 -0.00563313 -0.00989904 -0.0107805 -0.0120879 -0.00989904 -0.0112922 -0.0120879 -0.00886287 -0.0112922 -0.00845767 -0.00886287 -0.00105036 -0.00845767 -0.00111889 -0.00105036 0.00942621 -0.00111889 0.00894057 0.00942621 0.0191111 0.00894057 0.0182443 0.0191111 0.0248334 0.0182443 0.0236451 0.0248334 0.0252279 0.0236451 0.0239846 0.0252279 0.0207133 0.0239846 0.0199106 0.0207133 0.0125845 0.0199106 0.0127518 0.0125845 0.00231052 0.0127518 0.00374597 0.00231052 -0.00857472 0.00374597 -0.00601433 -0.00857472 -0.0181101 -0.00601433 -0.0150786 -0.0181101 -0.0234294 -0.0150786 -0.020883 -0.0234294 -0.0209865 -0.020883 -0.0196247 -0.0209865 -0.00870789 -0.0196247 -0.00846058 -0.00870789 0.0103621 -0.00846058 0.00997229 0.0103621 0.0278415 0.00997229 0.0267278 0.0278415 0.036498 0.0267278 0.0342543 0.036498 0.0351233 0.0342543 0.0320112 0.0351233 0.0265376 0.0320112 0.0235366 0.0265376 0.0140514 0.0235366 0.0122314 0.0140514 -1.64434e-17 0.0122314 -1.48022e-17 -1.48022e-17 -0.0122314 -1.01715e-17 -0.00985328 -0.0122314 -0.0235366 -0.00985328 -0.0195337 -0.0235366 -0.0320112 -0.0195337 -0.0277298 -0.0320112 -0.0342543 -0.0277298 -0.0310579 -0.0342543 -0.0267278 -0.0310579 -0.025117 -0.0267278 -0.00997229 -0.025117 -0.00948596 -0.00997229 0.00846058 -0.00948596 0.00794407 0.00846058 0.0196247 0.00794407 0.0175439 0.0196247 0.020883 0.0175439 0.0173182 0.020883 0.0150786 0.0173182 0.0110865 0.0150786 0.00601433 0.0110865 0.00283917 0.00601433 -0.00374597 0.00283917 -0.00534769 -0.00374597 -0.0127518 -0.00534769 -0.0126777 -0.0127518 -0.0199106 -0.0126777 -0.018586 -0.0199106 -0.0239846 -0.018586 -0.0221183 -0.0239846 -0.0236451 -0.0221183 -0.0219154 -0.0236451 -0.0182443 -0.0219154 -0.017037 -0.0182443 -0.00894057 -0.017037 -0.00835115 -0.00894057 0.00111889 -0.00835115 0.00105465 0.00111889 0.00845767 0.00105465 0.00770552 0.00845767 0.0112922 0.00770552 0.010025 0.0112922 0.00989904 0.010025 0.00857471 0.00989904 0.00563313 0.00857471 0.00479449 0.00563313 0 0.00479449 0 0 -0.00563313 0 -0.00479449 -0.00563313 -0.00989904 -0.00479449 -0.00857471 -0.00989904 -0.0112922 -0.00857471 -0.010025 -0.0112922 -0.00845767 -0.010025 -0.00770552 -0.00845767 -0.00111889 -0.00770552 -0.00105465 -0.00111889 0.00894057 -0.00105465 0.00835115 0.00894057 0.0182443 0.00835115 0.017037 0.0182443 0.0236451 0.017037 0.0219154 0.0236451 0.0239846 0.0219154 0.0221183 0.0239846 0.0199106 0.0221183 0.018586 0.0199106 0.0127518 0.018586 0.0126777 0.0127518 0.00374597 0.0126777 0.00534769 0.00374597 -0.00601433 0.00534769 -0.00283917 -0.00601433 -0.0150786 -0.00283917 -0.0110865 -0.0150786 -0.020883 -0.0110865 -0.0173182 -0.020883 -0.0196247 -0.0173182 -0.0175439 -0.0196247 -0.00846058 -0.0175439 -0.00794407 -0.00846058 0.00997229 -0.00794407 0.00948596 0.00997229 0.0267278 0.00948596 0.025117 0.0267278 0.0342543 0.025117 0.0310579 0.0342543 0.0320112 0.0310579 0.0277298 0.0320112 0.0235366 0.0277298 0.0195337 0.0235366 0.0122314 0.0195337 0.00985328 0.0122314 -1.48022e-17 0.00985328 -1.01715e-17 -1.01715e-17 -0.00985328 -8.33642e-18 -0.00683295 -0.00985328 -0.0195337 -0.00683295 -0.0143217 -0.0195337 -0.0277298 -0.0143217 -0.0219433 -0.0277298 -0.0310579 -0.0219433 -0.0265519 -0.0310579 -0.025117 -0.0265519 -0.0227911 -0.025117 -0.00948596 -0.0227911 -0.00887792 -0.00948596 0.00794407 -0.00887792 0.00699663 0.00794407 0.0175439 0.00699663 0.0144223 0.0175439 0.0173182 0.0144223 0.0123984 0.0173182 0.0110865 0.0123984 0.00592229 0.0110865 0.00283917 0.00592229 -0.00101216 0.00283917 -0.00534769 -0.00101216 -0.00706829 -0.00534769 -0.0126777 -0.00706829 -0.0122403 -0.0126777 -0.018586 -0.0122403 -0.0165607 -0.018586 -0.0221183 -0.0165607 -0.0194192 -0.0221183 -0.0219154 -0.0194192 -0.0194534 -0.0219154 -0.017037 -0.0194534 -0.0153716 -0.017037 -0.00835115 -0.0153716 -0.00764265 -0.00835115 0.00105465 -0.00764265 0.000770368 0.00105465 0.00770552 0.000770368 0.00644308 0.00770552 0.010025 0.00644308 0.00810169 0.010025 0.00857471 0.00810169 0.0066595 0.00857471 0.00479449 0.0066595 0.00361264 0.00479449 0 0.00361264 0 0 -0.00479449 0 -0.00361264 -0.00479449 -0.00857471 -0.00361264 -0.0066595 -0.00857471 -0.010025 -0.0066595 -0.00810169 -0.010025 -0.00770552 -0.00810169 -0.00644308 -0.00770552 -0.00105465 -0.00644308 -0.000770368 -0.00105465 0.00835115 -0.000770368 0.00764265 0.00835115 0.017037 0.00764265 0.0153716 0.017037 0.0219154 0.0153716 0.0194534 0.0219154 0.0221183 0.0194534 0.0194192 0.0221183 0.018586 0.0194192 0.0165607 0.018586 0.0126777 0.0165607 0.0122403 0.0126777 0.00534769 0.0122403 0.00706829 0.00534769 -0.00283917 0.00706829 0.00101216 -0.00283917 -0.0110865 0.00101216 -0.00592229 -0.0110865 -0.0173182 -0.00592229 -0.0123984 -0.0173182 -0.0175439 -0.0123984 -0.0144223 -0.0175439 -0.00794407 -0.0144223 -0.00699663 -0.00794407 0.00948596 -0.00699663 0.00887792 0.00948596 0.025117 0.00887792 0.0227911 0.025117 0.0310579 0.0227911 0.0265519 0.0310579 0.0277298 0.0265519 0.0219433 0.0277298 0.0195337 0.0219433 0.0143217 0.0195337 0.00985328 0.0143217 0.00683295 0.00985328 -1.01715e-17 0.00683295 -8.33642e-18 -8.33642e-18 -0.00683295 -1.26832e-17 -0.00310602 -0.00683295 -0.0143217 -0.00310602 -0.0077017 -0.0143217 -0.0219433 -0.0077017 -0.0142601 -0.0219433 -0.0265519 -0.0142601 -0.0202612 -0.0265519 -0.0227911 -0.0202612 -0.0194362 -0.0227911 -0.00887792 -0.0194362 -0.00811077 -0.00887792 0.00699663 -0.00811077 0.0053814 0.00699663 0.0144223 0.0053814 0.00981491 0.0144223 0.0123984 0.00981491 0.00570687 0.0123984 0.00592229 0.00570687 -0.00063323 0.00592229 -0.00101216 -0.00063323 -0.00557943 -0.00101216 -0.00706829 -0.00557943 -0.00884339 -0.00706829 -0.0122403 -0.00884339 -0.0113069 -0.0122403 -0.0165607 -0.0113069 -0.0136366 -0.0165607 -0.0194192 -0.0136366 -0.0156387 -0.0194192 -0.0194534 -0.0156387 -0.016017 -0.0194534 -0.0153716 -0.016017 -0.013092 -0.0153716 -0.00764265 -0.013092 -0.00679477 -0.00764265 0.000770368 -0.00679477 0.00014777 0.000770368 0.00644308 0.00014777 0.00445647 0.00644308 0.00810169 0.00445647 0.0052938 0.00810169 0.0066595 0.0052938 0.00398218 0.0066595 0.00361264 0.00398218 0.00200182 0.00361264 0 0.00200182 0 0 -0.00361264 0 -0.00200182 -0.00361264 -0.0066595 -0.00200182 -0.00398218 -0.0066595 -0.00810169 -0.00398218 -0.0052938 -0.00810169 -0.00644308 -0.0052938 -0.00445647 -0.00644308 -0.000770368 -0.00445647 -0.00014777 -0.000770368 0.00764265 -0.00014777 0.00679477 0.00764265 0.0153716 0.00679477 0.013092 0.0153716 0.0194534 0.013092 0.016017 0.0194534 0.0194192 0.016017 0.0156387 0.0194192 0.0165607 0.0156387 0.0136366 0.0165607 0.0122403 0.0136366 0.0113069 0.0122403 0.00706829 0.0113069 0.00884339 0.00706829 0.00101216 0.00884339 0.00557943 0.00101216 -0.00592229 0.00557943 0.00063323 -0.00592229 -0.0123984 0.00063323 -0.00570687 -0.0123984 -0.0144223 -0.00570687 -0.00981491 -0.0144223 -0.00699663 -0.00981491 -0.0053814 -0.00699663 0.00887792 -0.0053814 0.00811077 0.00887792 0.0227911 0.00811077 0.0194362 0.0227911 0.0265519 0.0194362 0.0202612 0.0265519 0.0219433 0.0202612 0.0142601 0.0219433 0.0143217 0.0142601 0.0077017 0.0143217 0.00683295 0.0077017 0.00310602 0.00683295 -8.33642e-18 0.00310602 -1.26832e-17 -1.26832e-17 -0.00310602 -1.31925e-17 0.00135699 -0.00310602 -0.0077017 0.00135699 0.000484145 -0.0077017 -0.0142601 0.000484145 -0.00424963 -0.0142601 -0.0202612 -0.00424963 -0.0115505 -0.0202612 -0.0194362 -0.0115505 -0.0145848 -0.0194362 -0.00811077 -0.0145848 -0.00712646 -0.00811077 0.0053814 -0.00712646 0.00273777 0.0053814 0.00981491 0.00273777 0.00309896 0.00981491 0.00570687 0.00309896 -0.00325362 0.00570687 -0.00063323 -0.00325362 -0.00877593 -0.00063323 -0.00557943 -0.00877593 -0.0108621 -0.00557943 -0.00884339 -0.0108621 -0.0105901 -0.00884339 -0.0113069 -0.0105901 -0.00974026 -0.0113069 -0.0136366 -0.00974026 -0.00960438 -0.0136366 -0.0156387 -0.00960438 -0.0104877 -0.0156387 -0.016017 -0.0104877 -0.0112976 -0.016017 -0.013092 -0.0112976 -0.00998653 -0.013092 -0.00679477 -0.00998653 -0.00578004 -0.00679477 0.00014777 -0.00578004 -0.000977875 0.00014777 0.00445647 -0.000977875 0.00146211 0.00445647 0.0052938 0.00146211 0.00132156 0.0052938 0.00398218 0.00132156 0.000352591 0.00398218 0.00200182 0.000352591 -0.000125378 0.00200182 0 -0.000125378 0 0 -0.00200182 0 0.000125378 -0.00200182 -0.00398218 0.000125378 -0.000352591 -0.00398218 -0.0052938 -0.000352591 -0.00132156 -0.0052938 -0.00445647 -0.00132156 -0.00146211 -0.00445647 -0.00014777 -0.00146211 0.000977875 -0.00014777 0.00679477 0.000977875 0.00578004 0.00679477 0.013092 0.00578004 0.00998653 0.013092 0.016017 0.00998653 0.0112976 0.016017 0.0156387 0.0112976 0.0104877 0.0156387 0.0136366 0.0104877 0.00960438 0.0136366 0.0113069 0.00960438 0.00974026 0.0