# vtk DataFile Version 3.0
#This file was generated by the deal.II library on 2017/9/27 at 13:19:02
ASCII
DATASET UNSTRUCTURED_GRID

POINTS 2688 double
-5.63207 0 0
-5.3974 0 0
-5.63207 0.0714286 0
-5.3974 0.0714286 0
-5.3974 0 0
-5.16273 0 0
-5.3974 0.0714286 0
-5.16273 0.0714286 0
-5.16273 0 0
-4.92806 0 0
-5.16273 0.0714286 0
-4.92806 0.0714286 0
-4.92806 0 0
-4.69339 0 0
-4.92806 0.0714286 0
-4.69339 0.0714286 0
-4.69339 0 0
-4.45872 0 0
-4.69339 0.0714286 0
-4.45872 0.0714286 0
-4.45872 0 0
-4.22405 0 0
-4.45872 0.0714286 0
-4.22405 0.0714286 0
-4.22405 0 0
-3.98938 0 0
-4.22405 0.0714286 0
-3.98938 0.0714286 0
-3.98938 0 0
-3.75472 0 0
-3.98938 0.0714286 0
-3.75472 0.0714286 0
-3.75472 0 0
-3.52005 0 0
-3.75472 0.0714286 0
-3.52005 0.0714286 0
-3.52005 0 0
-3.28538 0 0
-3.52005 0.0714286 0
-3.28538 0.0714286 0
-3.28538 0 0
-3.05071 0 0
-3.28538 0.0714286 0
-3.05071 0.0714286 0
-3.05071 0 0
-2.81604 0 0
-3.05071 0.0714286 0
-2.81604 0.0714286 0
-2.81604 0 0
-2.58137 0 0
-2.81604 0.0714286 0
-2.58137 0.0714286 0
-2.58137 0 0
-2.3467 0 0
-2.58137 0.0714286 0
-2.3467 0.0714286 0
-2.3467 0 0
-2.11203 0 0
-2.3467 0.0714286 0
-2.11203 0.0714286 0
-2.11203 0 0
-1.87736 0 0
-2.11203 0.0714286 0
-1.87736 0.0714286 0
-1.87736 0 0
-1.64269 0 0
-1.87736 0.0714286 0
-1.64269 0.0714286 0
-1.64269 0 0
-1.40802 0 0
-1.64269 0.0714286 0
-1.40802 0.0714286 0
-1.40802 0 0
-1.17335 0 0
-1.40802 0.0714286 0
-1.17335 0.0714286 0
-1.17335 0 0
-0.938679 0 0
-1.17335 0.0714286 0
-0.938679 0.0714286 0
-0.938679 0 0
-0.704009 0 0
-0.938679 0.0714286 0
-0.704009 0.0714286 0
-0.704009 0 0
-0.469339 0 0
-0.704009 0.0714286 0
-0.469339 0.0714286 0
-0.469339 0 0
-0.23467 0 0
-0.469339 0.0714286 0
-0.23467 0.0714286 0
-0.23467 0 0
0 0 0
-0.23467 0.0714286 0
0 0.0714286 0
0 0 0
0.23467 0 0
0 0.0714286 0
0.23467 0.0714286 0
0.23467 0 0
0.469339 0 0
0.23467 0.0714286 0
0.469339 0.0714286 0
0.469339 0 0
0.704009 0 0
0.469339 0.0714286 0
0.704009 0.0714286 0
0.704009 0 0
0.938679 0 0
0.704009 0.0714286 0
0.938679 0.0714286 0
0.938679 0 0
1.17335 0 0
0.938679 0.0714286 0
1.17335 0.0714286 0
1.17335 0 0
1.40802 0 0
1.17335 0.0714286 0
1.40802 0.0714286 0
1.40802 0 0
1.64269 0 0
1.40802 0.0714286 0
1.64269 0.0714286 0
1.64269 0 0
1.87736 0 0
1.64269 0.0714286 0
1.87736 0.0714286 0
1.87736 0 0
2.11203 0 0
1.87736 0.0714286 0
2.11203 0.0714286 0
2.11203 0 0
2.3467 0 0
2.11203 0.0714286 0
2.3467 0.0714286 0
2.3467 0 0
2.58137 0 0
2.3467 0.0714286 0
2.58137 0.0714286 0
2.58137 0 0
2.81604 0 0
2.58137 0.0714286 0
2.81604 0.0714286 0
2.81604 0 0
3.05071 0 0
2.81604 0.0714286 0
3.05071 0.0714286 0
3.05071 0 0
3.28538 0 0
3.05071 0.0714286 0
3.28538 0.0714286 0
3.28538 0 0
3.52005 0 0
3.28538 0.0714286 0
3.52005 0.0714286 0
3.52005 0 0
3.75472 0 0
3.52005 0.0714286 0
3.75472 0.0714286 0
3.75472 0 0
3.98938 0 0
3.75472 0.0714286 0
3.98938 0.0714286 0
3.98938 0 0
4.22405 0 0
3.98938 0.0714286 0
4.22405 0.0714286 0
4.22405 0 0
4.45872 0 0
4.22405 0.0714286 0
4.45872 0.0714286 0
4.45872 0 0
4.69339 0 0
4.45872 0.0714286 0
4.69339 0.0714286 0
4.69339 0 0
4.92806 0 0
4.69339 0.0714286 0
4.92806 0.0714286 0
4.92806 0 0
5.16273 0 0
4.92806 0.0714286 0
5.16273 0.0714286 0
5.16273 0 0
5.3974 0 0
5.16273 0.0714286 0
5.3974 0.0714286 0
5.3974 0 0
5.63207 0 0
5.3974 0.0714286 0
5.63207 0.0714286 0
-5.63207 0.0714286 0
-5.3974 0.0714286 0
-5.63207 0.142857 0
-5.3974 0.142857 0
-5.3974 0.0714286 0
-5.16273 0.0714286 0
-5.3974 0.142857 0
-5.16273 0.142857 0
-5.16273 0.0714286 0
-4.92806 0.0714286 0
-5.16273 0.142857 0
-4.92806 0.142857 0
-4.92806 0.0714286 0
-4.69339 0.0714286 0
-4.92806 0.142857 0
-4.69339 0.142857 0
-4.69339 0.0714286 0
-4.45872 0.0714286 0
-4.69339 0.142857 0
-4.45872 0.142857 0
-4.45872 0.0714286 0
-4.22405 0.0714286 0
-4.45872 0.142857 0
-4.22405 0.142857 0
-4.22405 0.0714286 0
-3.98938 0.0714286 0
-4.22405 0.142857 0
-3.98938 0.142857 0
-3.98938 0.0714286 0
-3.75472 0.0714286 0
-3.98938 0.142857 0
-3.75472 0.142857 0
-3.75472 0.0714286 0
-3.52005 0.0714286 0
-3.75472 0.142857 0
-3.52005 0.142857 0
-3.52005 0.0714286 0
-3.28538 0.0714286 0
-3.52005 0.142857 0
-3.28538 0.142857 0
-3.28538 0.0714286 0
-3.05071 0.0714286 0
-3.28538 0.142857 0
-3.05071 0.142857 0
-3.05071 0.0714286 0
-2.81604 0.0714286 0
-3.05071 0.142857 0
-2.81604 0.142857 0
-2.81604 0.0714286 0
-2.58137 0.0714286 0
-2.81604 0.142857 0
-2.58137 0.142857 0
-2.58137 0.0714286 0
-2.3467 0.0714286 0
-2.58137 0.142857 0
-2.3467 0.142857 0
-2.3467 0.0714286 0
-2.11203 0.0714286 0
-2.3467 0.142857 0
-2.11203 0.142857 0
-2.11203 0.0714286 0
-1.87736 0.0714286 0
-2.11203 0.142857 0
-1.87736 0.142857 0
-1.87736 0.0714286 0
-1.64269 0.0714286 0
-1.87736 0.142857 0
-1.64269 0.142857 0
-1.64269 0.0714286 0
-1.40802 0.0714286 0
-1.64269 0.142857 0
-1.40802 0.142857 0
-1.40802 0.0714286 0
-1.17335 0.0714286 0
-1.40802 0.142857 0
-1.17335 0.142857 0
-1.17335 0.0714286 0
-0.938679 0.0714286 0
-1.17335 0.142857 0
-0.938679 0.142857 0
-0.938679 0.0714286 0
-0.704009 0.0714286 0
-0.938679 0.142857 0
-0.704009 0.142857 0
-0.704009 0.0714286 0
-0.469339 0.0714286 0
-0.704009 0.142857 0
-0.469339 0.142857 0
-0.469339 0.0714286 0
-0.23467 0.0714286 0
-0.469339 0.142857 0
-0.23467 0.142857 0
-0.23467 0.0714286 0
0 0.0714286 0
-0.23467 0.142857 0
0 0.142857 0
0 0.0714286 0
0.23467 0.0714286 0
0 0.142857 0
0.23467 0.142857 0
0.23467 0.0714286 0
0.469339 0.0714286 0
0.23467 0.142857 0
0.469339 0.142857 0
0.469339 0.0714286 0
0.704009 0.0714286 0
0.469339 0.142857 0
0.704009 0.142857 0
0.704009 0.0714286 0
0.938679 0.0714286 0
0.704009 0.142857 0
0.938679 0.142857 0
0.938679 0.0714286 0
1.17335 0.0714286 0
0.938679 0.142857 0
1.17335 0.142857 0
1.17335 0.0714286 0
1.40802 0.0714286 0
1.17335 0.142857 0
1.40802 0.142857 0
1.40802 0.0714286 0
1.64269 0.0714286 0
1.40802 0.142857 0
1.64269 0.142857 0
1.64269 0.0714286 0
1.87736 0.0714286 0
1.64269 0.142857 0
1.87736 0.142857 0
1.87736 0.0714286 0
2.11203 0.0714286 0
1.87736 0.142857 0
2.11203 0.142857 0
2.11203 0.0714286 0
2.3467 0.0714286 0
2.11203 0.142857 0
2.3467 0.142857 0
2.3467 0.0714286 0
2.58137 0.0714286 0
2.3467 0.142857 0
2.58137 0.142857 0
2.58137 0.0714286 0
2.81604 0.0714286 0
2.58137 0.142857 0
2.81604 0.142857 0
2.81604 0.0714286 0
3.05071 0.0714286 0
2.81604 0.142857 0
3.05071 0.142857 0
3.05071 0.0714286 0
3.28538 0.0714286 0
3.05071 0.142857 0
3.28538 0.142857 0
3.28538 0.0714286 0
3.52005 0.0714286 0
3.28538 0.142857 0
3.52005 0.142857 0
3.52005 0.0714286 0
3.75472 0.0714286 0
3.52005 0.142857 0
3.75472 0.142857 0
3.75472 0.0714286 0
3.98938 0.0714286 0
3.75472 0.142857 0
3.98938 0.142857 0
3.98938 0.0714286 0
4.22405 0.0714286 0
3.98938 0.142857 0
4.22405 0.142857 0
4.22405 0.0714286 0
4.45872 0.0714286 0
4.22405 0.142857 0
4.45872 0.142857 0
4.45872 0.0714286 0
4.69339 0.0714286 0
4.45872 0.142857 0
4.69339 0.142857 0
4.69339 0.0714286 0
4.92806 0.0714286 0
4.69339 0.142857 0
4.92806 0.142857 0
4.92806 0.0714286 0
5.16273 0.0714286 0
4.92806 0.142857 0
5.16273 0.142857 0
5.16273 0.0714286 0
5.3974 0.0714286 0
5.16273 0.142857 0
5.3974 0.142857 0
5.3974 0.0714286 0
5.63207 0.0714286 0
5.3974 0.142857 0
5.63207 0.142857 0
-5.63207 0.142857 0
-5.3974 0.142857 0
-5.63207 0.214286 0
-5.3974 0.214286 0
-5.3974 0.142857 0
-5.16273 0.142857 0
-5.3974 0.214286 0
-5.16273 0.214286 0
-5.16273 0.142857 0
-4.92806 0.142857 0
-5.16273 0.214286 0
-4.92806 0.214286 0
-4.92806 0.142857 0
-4.69339 0.142857 0
-4.92806 0.214286 0
-4.69339 0.214286 0
-4.69339 0.142857 0
-4.45872 0.142857 0
-4.69339 0.214286 0
-4.45872 0.214286 0
-4.45872 0.142857 0
-4.22405 0.142857 0
-4.45872 0.214286 0
-4.22405 0.214286 0
-4.22405 0.142857 0
-3.98938 0.142857 0
-4.22405 0.214286 0
-3.98938 0.214286 0
-3.98938 0.142857 0
-3.75472 0.142857 0
-3.98938 0.214286 0
-3.75472 0.214286 0
-3.75472 0.142857 0
-3.52005 0.142857 0
-3.75472 0.214286 0
-3.52005 0.214286 0
-3.52005 0.142857 0
-3.28538 0.142857 0
-3.52005 0.214286 0
-3.28538 0.214286 0
-3.28538 0.142857 0
-3.05071 0.142857 0
-3.28538 0.214286 0
-3.05071 0.214286 0
-3.05071 0.142857 0
-2.81604 0.142857 0
-3.05071 0.214286 0
-2.81604 0.214286 0
-2.81604 0.142857 0
-2.58137 0.142857 0
-2.81604 0.214286 0
-2.58137 0.214286 0
-2.58137 0.142857 0
-2.3467 0.142857 0
-2.58137 0.214286 0
-2.3467 0.214286 0
-2.3467 0.142857 0
-2.11203 0.142857 0
-2.3467 0.214286 0
-2.11203 0.214286 0
-2.11203 0.142857 0
-1.87736 0.142857 0
-2.11203 0.214286 0
-1.87736 0.214286 0
-1.87736 0.142857 0
-1.64269 0.142857 0
-1.87736 0.214286 0
-1.64269 0.214286 0
-1.64269 0.142857 0
-1.40802 0.142857 0
-1.64269 0.214286 0
-1.40802 0.214286 0
-1.40802 0.142857 0
-1.17335 0.142857 0
-1.40802 0.214286 0
-1.17335 0.214286 0
-1.17335 0.142857 0
-0.938679 0.142857 0
-1.17335 0.214286 0
-0.938679 0.214286 0
-0.938679 0.142857 0
-0.704009 0.142857 0
-0.938679 0.214286 0
-0.704009 0.214286 0
-0.704009 0.142857 0
-0.469339 0.142857 0
-0.704009 0.214286 0
-0.469339 0.214286 0
-0.469339 0.142857 0
-0.23467 0.142857 0
-0.469339 0.214286 0
-0.23467 0.214286 0
-0.23467 0.142857 0
0 0.142857 0
-0.23467 0.214286 0
0 0.214286 0
0 0.142857 0
0.23467 0.142857 0
0 0.214286 0
0.23467 0.214286 0
0.23467 0.142857 0
0.469339 0.142857 0
0.23467 0.214286 0
0.469339 0.214286 0
0.469339 0.142857 0
0.704009 0.142857 0
0.469339 0.214286 0
0.704009 0.214286 0
0.704009 0.142857 0
0.938679 0.142857 0
0.704009 0.214286 0
0.938679 0.214286 0
0.938679 0.142857 0
1.17335 0.142857 0
0.938679 0.214286 0
1.17335 0.214286 0
1.17335 0.142857 0
1.40802 0.142857 0
1.17335 0.214286 0
1.40802 0.214286 0
1.40802 0.142857 0
1.64269 0.142857 0
1.40802 0.214286 0
1.64269 0.214286 0
1.64269 0.142857 0
1.87736 0.142857 0
1.64269 0.214286 0
1.87736 0.214286 0
1.87736 0.142857 0
2.11203 0.142857 0
1.87736 0.214286 0
2.11203 0.214286 0
2.11203 0.142857 0
2.3467 0.142857 0
2.11203 0.214286 0
2.3467 0.214286 0
2.3467 0.142857 0
2.58137 0.142857 0
2.3467 0.214286 0
2.58137 0.214286 0
2.58137 0.142857 0
2.81604 0.142857 0
2.58137 0.214286 0
2.81604 0.214286 0
2.81604 0.142857 0
3.05071 0.142857 0
2.81604 0.214286 0
[...]
POINT_DATA 2688
SCALARS x1_displacement double 1
LOOKUP_TABLE default
1.45884e-16 -0.0296308 1.14138e-16 -0.0290158 -0.0296308 -0.0583535 -0.0290158 -0.0573107 -0.0583535 -0.0832324 -0.0573107 -0.0821228 -0.0832324 -0.0978335 -0.0821228 -0.0970468 -0.0978335 -0.0934038 -0.0970468 -0.0930732 -0.0934038 -0.0684056 -0.0930732 -0.0683451 -0.0684056 -0.0421607 -0.0683451 -0.0423789 -0.0421607 -0.034486 -0.0423789 -0.0352045 -0.034486 -0.0440426 -0.0352045 -0.0451812 -0.0440426 -0.06132 -0.0451812 -0.0625508 -0.06132 -0.0785819 -0.0625508 -0.0796145 -0.0785819 -0.0915611 -0.0796145 -0.0922746 -0.0915611 -0.0986697 -0.0922746 -0.0990783 -0.0986697 -0.0999523 -0.0990783 -0.100128 -0.0999523 -0.0962967 -0.100128 -0.0963204 -0.0962967 -0.0889294 -0.0963204 -0.0888678 -0.0889294 -0.079102 -0.0888678 -0.0790039 -0.079102 -0.0678986 -0.0790039 -0.0677956 -0.0678986 -0.0561381 -0.0677956 -0.0560477 -0.0561381 -0.0443534 -0.0560477 -0.044283 -0.0443534 -0.0328239 -0.044283 -0.0327745 -0.0328239 -0.021634 -0.0327745 -0.0216035 -0.021634 -0.0107353 -0.0216035 -0.0107209 -0.0107353 0 -0.0107209 0 0 0.0107353 0 0.0107209 0.0107353 0.021634 0.0107209 0.0216035 0.021634 0.0328239 0.0216035 0.0327745 0.0328239 0.0443534 0.0327745 0.044283 0.0443534 0.0561381 0.044283 0.0560477 0.0561381 0.0678986 0.0560477 0.0677956 0.0678986 0.079102 0.0677956 0.0790039 0.079102 0.0889294 0.0790039 0.0888678 0.0889294 0.0962967 0.0888678 0.0963204 0.0962967 0.0999523 0.0963204 0.100128 0.0999523 0.0986697 0.100128 0.0990783 0.0986697 0.0915611 0.0990783 0.0922746 0.0915611 0.0785819 0.0922746 0.0796145 0.0785819 0.06132 0.0796145 0.0625508 0.06132 0.0440426 0.0625508 0.0451812 0.0440426 0.034486 0.0451812 0.0352045 0.034486 0.0421607 0.0352045 0.0423789 0.0421607 0.0684056 0.0423789 0.0683451 0.0684056 0.0934038 0.0683451 0.0930732 0.0934038 0.0978335 0.0930732 0.0970468 0.0978335 0.0832324 0.0970468 0.0821228 0.0832324 0.0583535 0.0821228 0.0573107 0.0583535 0.0296308 0.0573107 0.0290158 0.0296308 1.45884e-16 0.0290158 1.14138e-16 1.14138e-16 -0.0290158 8.71649e-17 -0.0272431 -0.0290158 -0.0573107 -0.0272431 -0.0542738 -0.0573107 -0.0821228 -0.0542738 -0.0788512 -0.0821228 -0.0970468 -0.0788512 -0.0947334 -0.0970468 -0.0930732 -0.0947334 -0.0921674 -0.0930732 -0.0683451 -0.0921674 -0.0681803 -0.0683451 -0.0423789 -0.0681803 -0.0429643 -0.0423789 -0.0352045 -0.0429643 -0.0372972 -0.0352045 -0.0451812 -0.0372972 -0.0484859 -0.0451812 -0.0625508 -0.0484859 -0.0660572 -0.0625508 -0.0796145 -0.0660572 -0.0825028 -0.0796145 -0.0922746 -0.0825028 -0.0942401 -0.0922746 -0.0990783 -0.0942401 -0.100187 -0.0990783 -0.100128 -0.100187 -0.100593 -0.100128 -0.0963204 -0.100593 -0.0963676 -0.0963204 -0.0888678 -0.0963676 -0.0886838 -0.0888678 -0.0790039 -0.0886838 -0.0787231 -0.0790039 -0.0677956 -0.0787231 -0.0675046 -0.0677956 -0.0560477 -0.0675046 -0.0557942 -0.0560477 -0.044283 -0.0557942 -0.0440866 -0.044283 -0.0327745 -0.0440866 -0.0326374 -0.0327745 -0.0216035 -0.0326374 -0.0215192 -0.0216035 -0.0107209 -0.0215192 -0.0106813 -0.0107209 0 -0.0106813 0 0 0.0107209 0 0.0106813 0.0107209 0.0216035 0.0106813 0.0215192 0.0216035 0.0327745 0.0215192 0.0326374 0.0327745 0.044283 0.0326374 0.0440866 0.044283 0.0560477 0.0440866 0.0557942 0.0560477 0.0677956 0.0557942 0.0675046 0.0677956 0.0790039 0.0675046 0.0787231 0.0790039 0.0888678 0.0787231 0.0886838 0.0888678 0.0963204 0.0886838 0.0963676 0.0963204 0.100128 0.0963676 0.100593 0.100128 0.0990783 0.100593 0.100187 0.0990783 0.0922746 0.100187 0.0942401 0.0922746 0.0796145 0.0942401 0.0825028 0.0796145 0.0625508 0.0825028 0.0660572 0.0625508 0.0451812 0.0660572 0.0484859 0.0451812 0.0352045 0.0484859 0.0372972 0.0352045 0.0423789 0.0372972 0.0429643 0.0423789 0.0683451 0.0429643 0.0681803 0.0683451 0.0930732 0.0681803 0.0921674 0.0930732 0.0970468 0.0921674 0.0947334 0.0970468 0.0821228 0.0947334 0.0788512 0.0821228 0.0573107 0.0788512 0.0542738 0.0573107 0.0290158 0.0542738 0.0272431 0.0290158 1.14138e-16 0.0272431 8.71649e-17 8.71649e-17 -0.0272431 7.58667e-17 -0.0244131 -0.0272431 -0.0542738 -0.0244131 -0.0493655 -0.0542738 -0.0788512 -0.0493655 -0.0734825 -0.0788512 -0.0947334 -0.0734825 -0.0909163 -0.0947334 -0.0921674 -0.0909163 -0.0907379 -0.0921674 -0.0681803 -0.0907379 -0.067927 -0.0681803 -0.0429643 -0.067927 -0.0438861 -0.0429643 -0.0372972 -0.0438861 -0.040736 -0.0372972 -0.0484859 -0.040736 -0.053846 -0.0484859 -0.0660572 -0.053846 -0.0716187 -0.0660572 -0.0825028 -0.0716187 -0.0869902 -0.0825028 -0.0942401 -0.0869902 -0.0972448 -0.0942401 -0.100187 -0.0972448 -0.101857 -0.100187 -0.100593 -0.101857 -0.101277 -0.100593 -0.0963676 -0.101277 -0.096417 -0.0963676 -0.0886838 -0.096417 -0.0883845 -0.0886838 -0.0787231 -0.0883845 -0.0782809 -0.0787231 -0.0675046 -0.0782809 -0.0670512 -0.0675046 -0.0557942 -0.0670512 -0.0554016 -0.0557942 -0.0440866 -0.0554016 -0.0437839 -0.0440866 -0.0326374 -0.0437839 -0.0324269 -0.0326374 -0.0215192 -0.0324269 -0.0213902 -0.0215192 -0.0106813 -0.0213902 -0.0106209 -0.0106813 0 -0.0106209 0 0 0.0106813 0 0.0106209 0.0106813 0.0215192 0.0106209 0.0213902 0.0215192 0.0326374 0.0213902 0.0324269 0.0326374 0.0440866 0.0324269 0.0437839 0.0440866 0.0557942 0.0437839 0.0554016 0.0557942 0.0675046 0.0554016 0.0670512 0.0675046 0.0787231 0.0670512 0.0782809 0.0787231 0.0886838 0.0782809 0.0883845 0.0886838 0.0963676 0.0883845 0.096417 0.0963676 0.100593 0.096417 0.101277 0.100593 0.100187 0.101277 0.101857 0.100187 0.0942401 0.101857 0.0972448 0.0942401 0.0825028 0.0972448 0.0869902 0.0825028 0.0660572 0.0869902 0.0716187 0.0660572 0.0484859 0.0716187 0.053846 0.0484859 0.0372972 0.053846 0.040736 0.0372972 0.0429643 0.040736 0.0438861 0.0429643 0.0681803 0.0438861 0.067927 0.0681803 0.0921674 0.067927 0.0907379 0.0921674 0.0947334 0.0907379 0.0909163 0.0947334 0.0788512 0.0909163 0.0734825 0.0788512 0.0542738 0.0734825 0.0493655 0.0542738 0.0272431 0.0493655 0.0244131 0.0272431 8.71649e-17 0.0244131 7.58667e-17 7.58667e-17 -0.0244131 7.22815e-17 -0.0205989 -0.0244131 -0.0493655 -0.0205989 -0.0426206 -0.0493655 -0.0734825 -0.0426206 -0.0659 -0.0734825 -0.0909163 -0.0659 -0.0853933 -0.0909163 -0.0907379 -0.0853933 -0.0886998 -0.0907379 -0.067927 -0.0886998 -0.0675958 -0.067927 -0.0438861 -0.0675958 -0.0452355 -0.0438861 -0.040736 -0.0452355 -0.0456999 -0.040736 -0.053846 -0.0456999 -0.0613137 -0.053846 -0.0716187 -0.0613137 -0.0790839 -0.0716187 -0.0869902 -0.0790839 -0.092828 -0.0869902 -0.0972448 -0.092828 -0.101059 -0.0972448 -0.101857 -0.101059 -0.103928 -0.101857 -0.101277 -0.103928 -0.102086 -0.101277 -0.096417 -0.102086 -0.0964254 -0.096417 -0.0883845 -0.0964254 -0.0879609 -0.0883845 -0.0782809 -0.0879609 -0.0776875 -0.0782809 -0.0670512 -0.0776875 -0.0664544 -0.0670512 -0.0554016 -0.0664544 -0.054891 -0.0554016 -0.0437839 -0.054891 -0.0433939 -0.0437839 -0.0324269 -0.0433939 -0.0321578 -0.0324269 -0.0213902 -0.0321578 -0.0212265 -0.0213902 -0.0106209 -0.0212265 -0.0105446 -0.0106209 0 -0.0105446 0 0 0.0106209 0 0.0105446 0.0106209 0.0213902 0.0105446 0.0212265 0.0213902 0.0324269 0.0212265 0.0321578 0.0324269 0.0437839 0.0321578 0.0433939 0.0437839 0.0554016 0.0433939 0.054891 0.0554016 0.0670512 0.054891 0.0664544 0.0670512 0.0782809 0.0664544 0.0776875 0.0782809 0.0883845 0.0776875 0.0879609 0.0883845 0.096417 0.0879609 0.0964254 0.096417 0.101277 0.0964254 0.102086 0.101277 0.101857 0.102086 0.103928 0.101857 0.0972448 0.103928 0.101059 0.0972448 0.0869902 0.101059 0.092828 0.0869902 0.0716187 0.092828 0.0790839 0.0716187 0.053846 0.0790839 0.0613137 0.053846 0.040736 0.0613137 0.0456999 0.040736 0.0438861 0.0456999 0.0452355 0.0438861 0.067927 0.0452355 0.0675958 0.067927 0.0907379 0.0675958 0.0886998 0.0907379 0.0909163 0.0886998 0.0853933 0.0909163 0.0734825 0.0853933 0.0659 0.0734825 0.0493655 0.0659 0.0426206 0.0493655 0.0244131 0.0426206 0.0205989 0.0244131 7.58667e-17 0.0205989 7.22815e-17 7.22815e-17 -0.0205989 6.7457e-17 -0.0158751 -0.0205989 -0.0426206 -0.0158751 -0.0340372 -0.0426206 -0.0659 -0.0340372 -0.0558456 -0.0659 -0.0853933 -0.0558456 -0.0777386 -0.0853933 -0.0886998 -0.0777386 -0.0858276 -0.0886998 -0.0675958 -0.0858276 -0.0671937 -0.0675958 -0.0452355 -0.0671937 -0.0472327 -0.0452355 -0.0456999 -0.0472327 -0.0525802 -0.0456999 -0.0613137 -0.0525802 -0.0710752 -0.0613137 -0.0790839 -0.0710752 -0.0883334 -0.0790839 -0.092828 -0.0883334 -0.099758 -0.092828 -0.101059 -0.099758 -0.105438 -0.101059 -0.103928 -0.105438 -0.106221 -0.103928 -0.102086 -0.106221 -0.102909 -0.102086 -0.0964254 -0.102909 -0.0963352 -0.0964254 -0.0879609 -0.0963352 -0.0873922 -0.0879609 -0.0776875 -0.0873922 -0.0769453 -0.0776875 -0.0664544 -0.0769453 -0.0657289 -0.0664544 -0.054891 -0.0657289 -0.0542816 -0.054891 -0.0433939 -0.0542816 -0.0429353 -0.0433939 -0.0321578 -0.0429353 -0.0318456 -0.0321578 -0.0212265 -0.0318456 -0.0210386 -0.0212265 -0.0105446 -0.0210386 -0.0104578 -0.0105446 0 -0.0104578 0 0 0.0105446 0 0.0104578 0.0105446 0.0212265 0.0104578 0.0210386 0.0212265 0.0321578 0.0210386 0.0318456 0.0321578 0.0433939 0.0318456 0.0429353 0.0433939 0.054891 0.0429353 0.0542816 0.054891 0.0664544 0.0542816 0.0657289 0.0664544 0.0776875 0.0657289 0.0769453 0.0776875 0.0879609 0.0769453 0.0873922 0.0879609 0.0964254 0.0873922 0.0963352 0.0964254 0.102086 0.0963352 0.102909 0.102086 0.103928 0.102909 0.106221 0.103928 0.101059 0.106221 0.105438 0.101059 0.092828 0.105438 0.099758 0.092828 0.0790839 0.099758 0.0883334 0.0790839 0.0613137 0.0883334 0.0710752 0.0613137 0.0456999 0.0710752 0.0525802 0.0456999 0.0452355 0.0525802 0.0472327 0.0452355 0.0675958 0.0472327 0.0671937 0.0675958 0.0886998 0.0671937 0.0858276 0.0886998 0.0853933 0.0858276 0.0777386 0.0853933 0.0659 0.0777386 0.0558456 0.0659 0.0426206 0.0558456 0.0340372 0.0426206 0.0205989 0.0340372 0.0158751 0.0205989 7.22815e-17 0.0158751 6.7457e-17 6.7457e-17 -0.0158751 6.21794e-17 -0.0103471 -0.0158751 -0.0340372 -0.0103471 -0.0236405 -0.0340372 -0.0558456 -0.0236405 -0.0429717 -0.0558456 -0.0777386 -0.0429717 -0.0672807 -0.0777386 -0.0858276 -0.0672807 -0.0817147 -0.0858276 -0.0671937 -0.0817147 -0.0667263 -0.0671937 -0.0472327 -0.0667263 -0.0502709 -0.0472327 -0.0525802 -0.0502709 -0.062009 -0.0525802 -0.0710752 -0.062009 -0.0834105 -0.0710752 -0.0883334 -0.0834105 -0.0992282 -0.0883334 -0.099758 -0.0992282 -0.107493 -0.099758 -0.105438 -0.107493 -0.110121 -0.105438 -0.106221 -0.110121 -0.108547 -0.106221 -0.102909 -0.108547 -0.103625 -0.102909 -0.0963352 -0.103625 -0.0960795 -0.0963352 -0.0873922 -0.0960795 -0.0866506 -0.0873922 -0.0769453 -0.0866506 -0.0760519 -0.0769453 -0.0657289 -0.0760519 -0.0648867 -0.0657289 -0.0542816 -0.0648867 -0.0535914 -0.0542816 -0.0429353 -0.0535914 -0.0424266 -0.0429353 -0.0318456 -0.0424266 -0.0315059 -0.0318456 -0.0210386 -0.0315059 -0.0208378 -0.0210386 -0.0104578 -0.0208378 -0.0103662 -0.0104578 0 -0.0103662 0 0 0.0104578 0 0.0103662 0.0104578 0.0210386 0.0103662 0.0208378 0.0210386 0.0318456 0.0208378 0.0315059 0.0318456 0.0429353 0.0315059 0.0424266 0.0429353 0.0542816 0.0424266 0.0535914 0.0542816 0.0657289 0.0535914 0.0648867 0.0657289 0.0769453 0.0648867 0.0760519 0.0769453 0.0873922 0.0760519 0.0866506 0.0873922 0.0963352 0.0866506 0.0960795 0.0963352 0.102909 0.0960795 0.103625 0.102909 0.106221 0.103625 0.108547 0.106221 0.105438 0.108547 0.110121 0.105438 0.099758 0.110121 0.107493 0.099758 0.0883334 0.107493 0.0992282 0.0883334 0.0710752 0.0992282 0.0834105 0.0710752 0.0525802 0.0834105 0.062009 0.0525802 0.0472327 0.062009 0.0502709 0.0472327 0.0671937 0.0502709 0.0667263 0.0671937 0.0858276 0.0667263 0.0817147 0.0858276 0.0777386 0.0817147 0.0672807 0.0777386 0.0558456 0.0672807 0.0429717 0.0558456 0.0340372 0.0429717 0.0236405 0.0340372 0.0158751 0.0236405 0.0103471 0.0158751 6.7457e-17 0.0103471 6.21794e-17 6.21794e-17 -0.0103471 5.98486e-17 -0.00417077 -0.0103471 -0.0236405 -0.00417077 -0.0115553 -0.0236405 -0.0429717 -0.0115553 -0.02692 -0.0429717 -0.0672807 -0.02692 -0.0530578 -0.0672807 -0.0817147 -0.0530578 -0.075682 -0.0817147 -0.0667263 -0.075682 -0.0661978 -0.0667263 -0.0502709 -0.0661978 -0.0550092 -0.0502709 -0.062009 -0.0550092 -0.0749131 -0.062009 -0.0834105 -0.0749131 -0.0986267 -0.0834105 -0.0992282 -0.0986267 -0.111546 -0.0992282 -0.107493 -0.111546 -0.115704 -0.107493 -0.110121 -0.115704 -0.114838 -0.110121 -0.108547 -0.114838 -0.110711 -0.108547 -0.103625 -0.110711 -0.104107 -0.103625 -0.0960795 -0.104107 -0.0955862 -0.0960795 -0.0866506 -0.0955862 -0.0857045 -0.0866506 -0.0760519 -0.0857045 -0.0750025 -0.0760519 -0.0648867 -0.0750025 -0.0639387 -0.0648867 -0.0535914 -0.0639387 -0.0528383 -0.0535914 -0.0424266 -0.0528383 -0.0418866 -0.0424266 -0.0315059 -0.0418866 -0.0311547 -0.0315059 -0.0208378 -0.0311547 -0.0206352 -0.0208378 -0.0103662 -0.0206352 -0.0102755 -0.0103662 0 -0.0102755 0 0 0.0103662 0 0.0102755 0.0103662 0.0208378 0.0102755 0.0206352 0.0208378 0.0315059 0.0206352 0.0311547 0.0315059 0.0424266 0.0311547 0.0418866 0.0424266 0.0535914 0.0418866 0.0528383 0.0535914 0.0648867 0.0528383 0.0639387 0.0648867 0.0760519 0.0639387 0.0750025 0.0760519 0.0866506 0.0750025 0.0857045 0.0866506 0.0960795 0.0857045 0.0955862 0.0960795 0.103625 0.0955862 0.104107 0.103625 0.108547 0.104107 0.110711 0.108547 0.110121 0.110711 0.114838 0.110121 0.107493 0.114838 0.115704 0.107493 0.0992282 0.115704 0.111546 0.0992282 0.0834105 0.111546 0.0986267 0.0834105 0.062009 0.0986267 0.0749131 0.062009 0.0502709 0.0749131 0.0550092 0.0502709 0.0667263 0.0550092 0.0661978 0.0667263 0.0817147 0.0661978 0.075682 0.0817147 0.0672807 0.075682 0.0530578 0.0672807 0.0429717 0.0530578 0.02692 0.0429717 0.0236405 0.02692 0.0115553 0.0236405 0.0103471 0.0115553 0.00417077 0.0103471 6.21794e-17 0.00417077 5.98486e-17 5.98486e-17 -0.00417077 5.2245e-17 0.00244675 -0.00417077 -0.0115553 0.00244675 0.00191772 -0.0115553 -0.02692 0.00191772 -0.00746527 -0.02692 -0.0530578 -0.00746527 -0.0337643 -0.0530578 -0.075682 -0.0337643 -0.0666053 -0.075682 -0.0661978 -0.0666053 -0.0656121 -0.0661978 -0.0550092 -0.0656121 -0.0625482 -0.0550092 -0.0749131 -0.0625482 -0.0925811 -0.0749131 -0.0986267 -0.0925811 -0.116926 -0.0986267 -0.111546 -0.116926 -0.124908 -0.111546 -0.115704 -0.124908 -0.124015 -0.115704 -0.114838 -0.124015 -0.119312 -0.114838 -0.110711 -0.119312 -0.112518 -0.110711 -0.104107 -0.112518 -0.104227 -0.104107 -0.0955862 -0.104227 -0.0947826 -0.0955862 -0.0857045 -0.0947826 -0.0845216 -0.0857045 -0.0750025 -0.0845216 -0.0737924 -0.0750025 -0.0639387 -0.0737924 -0.0628961 -0.0639387 -0.0528383 -0.0628961 -0.0520408 -0.0528383 -0.0418866 -0.0520408 -0.0413349 -0.0418866 -0.0311547 -0.0413349 -0.0308088 -0.0311547 -0.0206352 -0.0308088 -0.0204428 -0.0206352 -0.0102755 -0.0204428 -0.0101918 -0.0102755 0 -0.0101918 0 0 0.0102755 0 0.0101918 0.0102755 0.0206352 0.0101918 0.0204428 0.0206352 0.0311547 0.0204428 0.0308088 0.0311547 0.0418866 0.0308088 0.0413349 0.0418866 0.0528383 0.0413349 0.0520408 0.0528383 0.0639387 0.0520408 0.0628961 0.0639387 0.0750025 0.0628961 0.0737924 0.0750025 0.0857045 0.0737924 0.0845216 0.0857045 0.0955862 0.0845216 0.0947826 0.0955862 0.104107 0.0947826 0.104227 0.104107 0.110711 0.104227 0.112518 0.110711 0.114838 0.112518 0.119312 0.114838 0.115704 0.119312 0.124015 0.115704 0.111546 0.124015 0.124908 0.111546 0.0986267 0.124908 0.116926 0.0986267 0.0749131 0.116926 0.0925811 0.0749131 0.0550092 0.0925811 0.0625482 0.0550092 0.0661978 0.0625482 0.0656121 0.0661978 0.075682 0.0656121 0.0666053 0.075682 0.0530578 0.0666053 0.0337643 0.0530578 0.02692 0.0337643 0.00746527 0.02692 0.0115553 0.00746527 -0.00191772 0.0115553 0.00417077 -0.00191772 -0.00244675 0.00417077 5.98486e-17 -0.00244675 5.2245e-17 5.2245e-17 0.00244675 4.98881e-17 0.00927283 0.00244675 0.00191772 0.00927283 0.0162587 0.00191772 -0.00746527 0.0162587 0.0152241 -0.00746527 -0.0337643 0.0152241 -0.0077344 -0.0337643 -0.0666053 -0.0077344 -0.0525813 -0.0666053 -0.0656121 -0.0525813 -0.0649715 -0.0656121 -0.0625482 -0.0649715 -0.0747717 -0.0625482 -0.0925811 -0.0747717 -0.116703 -0.0925811 -0.116926 -0.116703 -0.138147 -0.116926 -0.124908 -0.138147 -0.138732 -0.124908 -0.124015 -0.138732 -0.132031 -0.124015 -0.119312 -0.132031 -0.123269 -0.119312 -0.112518 -0.123269 -0.113774 -0.112518 -0.104227 -0.113774 -0.103861 -0.104227 -0.0947826 -0.103861 -0.093598 -0.0947826 -0.0845216 -0.093598 -0.0830718 -0.0845216 -0.0737924 -0.0830718 -0.0724192 -0.0737924 -0.0628961 -0.0724192 -0.0617726 -0.0628961 -0.0520408 -0.0617726 -0.0512191 -0.0520408 -0.0413349 -0.0512191 -0.0407921 -0.0413349 -0.0308088 -0.0407921 -0.0304853 -0.0308088 -0.0204428 -0.0304853 -0.0202725 -0.0204428 -0.0101918 -0.0202725 -0.0101213 -0.0101918 0 -0.0101213 0 0 0.0101918 0 0.0101213 0.0101918 0.0204428 0.0101213 0.0202725 0.0204428 0.0308088 0.0202725 0.0304853 0.0308088 0.0413349 0.0304853 0.0407921 0.0413349 0.0520408 0.0407921 0.0512191 0.0520408 0.0628961 0.0512191 0.0617726 0.0628961 0.0737924 0.0617726 0.0724192 0.0737924 0.0845216 0.0724192 0.0830718 0.0845216 0.0947826 0.0830718 0.093598 0.0947826 0.104227 0.093598 0.103861 0.104227 0.112518 0.103861 0.113774 0.112518 0.119312 0.113774 0.123269 0.119312 0.124015 0.123269 0.132031 0.124015 0.124908 0.132031 0.138732 0.124908 0.116926 0.138732 0.138147 0.116926 0.0925811 0.138147 0.116703 0.0925811 0.0625482 0.116703 0.0747717 0.0625482 0.0656121 0.0747717 0.0649715 0.0656121 0.0666053 0.0649715 0.0525813 0.0666053 0.0337643 0.0525813 0.0077344 0.0337643 0.00746527 0.0077344 -0.0152241 0.00746527 -0.00191772 -0.0152241 -0.0162587 -0.00191772 -0.00244675 -0.0162587 -0.00927283 -0.00244675 5.2245e-17 -0.00927283 4.98881e-17 4.98881e-17 0.00927283 4.9525e-17 0.0160855 0.00927283 0.0162587 0.0160855 0.0307991 0.0162587 0.0152241 0.0307991 0.040168 0.0152241 -0.0077344 0.040168 0.0268355 -0.0077344 -0.0525813 0.0268355 -0.0301902 -0.0525813 -0.0649715 -0.0301902 -0.0642797 -0.0649715 -0.0747717 -0.0642797 -0.0951035 -0.0747717 -0.116703 -0.0951035 -0.149176 -0.116703 -0.138147 -0.149176 -0.161343 -0.138147 -0.138732 -0.161343 -0.152288 -0.138732 -0.132031 -0.152288 -0.13937 -0.132031 -0.123269 -0.13937 -0.126436 -0.123269 -0.113774 -0.126436 -0.114292 -0.113774 -0.103861 -0.114292 -0.102889 -0.103861 -0.093598 -0.102889 -0.0919661 -0.093598 -0.0830718 -0.0919661 -0.0813297 -0.0830718 -0.0724192 -0.0813297 -0.0708844 -0.0724192 -0.0617726 -0.0708844 -0.0605848 -0.0617726 -0.0512191 -0.0605848 -0.0503958 -0.0512191 -0.0407921 -0.0503958 -0.04028 -0.0407921 -0.0304853 -0.04028 -0.0302022 -0.0304853 -0.0202725 -0.0302022 -0.0201366 -0.0202725 -0.0101213 -0.0201366 -0.0100701 -0.0101213 0 -0.0100701 0 0 0.0101213 0 0.0100701 0.0101213 0.0202725 0.0100701 0.0201366 0.0202725 0.0304853 0.0201366 0.0302022 0.0304853 0.0407921 0.0302022 0.04028 0.0407921 0.0512191 0.04028 0.0503958 0.0512191 0.0617726 0.0503958 0.0605848 0.0617726 0.0724192 0.0605848 0.0708844 0.0724192 0.0830718 0.0708844 0.0813297 0.0830718 0.093598 0.0813297 0.0919661 0.093598 0.103861 0.0919661 0.102889 0.103861 0.113774 0.102889 0.114292 0.113774 0.123269 0.114292 0.126436 0.123269 0.132031 0.126436 0.13937 0.132031 0.138732 0.13937 0.152288 0.138732 0.138147 0.152288 0.161343 0.138147 0.116703 0.161343 0.149176 0.116703 0.0747717 0.149176 0.0951035 0.0747717 0.0649715 0.0951035 0.0642797 0.0649715 0.0525813 0.0642797 0.0301902 0.0525813 0.0077344 0.0301902 -0.0268355 0.0077344 -0.0152241 -0.0268355 -0.040168 -0.0152241 -0.0162587 -0.040168 -0.0307991 -0.0162587 -0.00927283 -0.0307991 -0.0160855 -0.00927283 4.98881e-17 -0.0160855 4.9525e-17 4.9525e-17 0.0160855 4.04609e-17 0.022657 0.0160855 0.0307991 0.022657 0.0449822 0.0307991 0.040168 0.0449822 0.065268 0.040168 0.0268355 0.065268 0.0704776 0.0268355 -0.0301902 0.0704776 0.00749036 -0.0301902 -0.0642797 0.00749036 -0.0635598 -0.0642797 -0.0951035 -0.0635598 -0.130573 -0.0951035 -0.149176 -0.130573 -0.190704 -0.149176 -0.161343 -0.190704 -0.184434 -0.161343 -0.152288 -0.184434 -0.164953 -0.152288 -0.13937 -0.164953 -0.145654 -0.13937 -0.126436 -0.145654 -