# vtk DataFile Version 3.0
#This file was generated by the deal.II library on 2017/9/27 at 13:19:22
ASCII
DATASET UNSTRUCTURED_GRID

POINTS 2688 double
-5.63207 0 0
-5.3974 0 0
-5.63207 0.0714286 0
-5.3974 0.0714286 0
-5.3974 0 0
-5.16273 0 0
-5.3974 0.0714286 0
-5.16273 0.0714286 0
-5.16273 0 0
-4.92806 0 0
-5.16273 0.0714286 0
-4.92806 0.0714286 0
-4.92806 0 0
-4.69339 0 0
-4.92806 0.0714286 0
-4.69339 0.0714286 0
-4.69339 0 0
-4.45872 0 0
-4.69339 0.0714286 0
-4.45872 0.0714286 0
-4.45872 0 0
-4.22405 0 0
-4.45872 0.0714286 0
-4.22405 0.0714286 0
-4.22405 0 0
-3.98938 0 0
-4.22405 0.0714286 0
-3.98938 0.0714286 0
-3.98938 0 0
-3.75472 0 0
-3.98938 0.0714286 0
-3.75472 0.0714286 0
-3.75472 0 0
-3.52005 0 0
-3.75472 0.0714286 0
-3.52005 0.0714286 0
-3.52005 0 0
-3.28538 0 0
-3.52005 0.0714286 0
-3.28538 0.0714286 0
-3.28538 0 0
-3.05071 0 0
-3.28538 0.0714286 0
-3.05071 0.0714286 0
-3.05071 0 0
-2.81604 0 0
-3.05071 0.0714286 0
-2.81604 0.0714286 0
-2.81604 0 0
-2.58137 0 0
-2.81604 0.0714286 0
-2.58137 0.0714286 0
-2.58137 0 0
-2.3467 0 0
-2.58137 0.0714286 0
-2.3467 0.0714286 0
-2.3467 0 0
-2.11203 0 0
-2.3467 0.0714286 0
-2.11203 0.0714286 0
-2.11203 0 0
-1.87736 0 0
-2.11203 0.0714286 0
-1.87736 0.0714286 0
-1.87736 0 0
-1.64269 0 0
-1.87736 0.0714286 0
-1.64269 0.0714286 0
-1.64269 0 0
-1.40802 0 0
-1.64269 0.0714286 0
-1.40802 0.0714286 0
-1.40802 0 0
-1.17335 0 0
-1.40802 0.0714286 0
-1.17335 0.0714286 0
-1.17335 0 0
-0.938679 0 0
-1.17335 0.0714286 0
-0.938679 0.0714286 0
-0.938679 0 0
-0.704009 0 0
-0.938679 0.0714286 0
-0.704009 0.0714286 0
-0.704009 0 0
-0.469339 0 0
-0.704009 0.0714286 0
-0.469339 0.0714286 0
-0.469339 0 0
-0.23467 0 0
-0.469339 0.0714286 0
-0.23467 0.0714286 0
-0.23467 0 0
0 0 0
-0.23467 0.0714286 0
0 0.0714286 0
0 0 0
0.23467 0 0
0 0.0714286 0
0.23467 0.0714286 0
0.23467 0 0
0.469339 0 0
0.23467 0.0714286 0
0.469339 0.0714286 0
0.469339 0 0
0.704009 0 0
0.469339 0.0714286 0
0.704009 0.0714286 0
0.704009 0 0
0.938679 0 0
0.704009 0.0714286 0
0.938679 0.0714286 0
0.938679 0 0
1.17335 0 0
0.938679 0.0714286 0
1.17335 0.0714286 0
1.17335 0 0
1.40802 0 0
1.17335 0.0714286 0
1.40802 0.0714286 0
1.40802 0 0
1.64269 0 0
1.40802 0.0714286 0
1.64269 0.0714286 0
1.64269 0 0
1.87736 0 0
1.64269 0.0714286 0
1.87736 0.0714286 0
1.87736 0 0
2.11203 0 0
1.87736 0.0714286 0
2.11203 0.0714286 0
2.11203 0 0
2.3467 0 0
2.11203 0.0714286 0
2.3467 0.0714286 0
2.3467 0 0
2.58137 0 0
2.3467 0.0714286 0
2.58137 0.0714286 0
2.58137 0 0
2.81604 0 0
2.58137 0.0714286 0
2.81604 0.0714286 0
2.81604 0 0
3.05071 0 0
2.81604 0.0714286 0
3.05071 0.0714286 0
3.05071 0 0
3.28538 0 0
3.05071 0.0714286 0
3.28538 0.0714286 0
3.28538 0 0
3.52005 0 0
3.28538 0.0714286 0
3.52005 0.0714286 0
3.52005 0 0
3.75472 0 0
3.52005 0.0714286 0
3.75472 0.0714286 0
3.75472 0 0
3.98938 0 0
3.75472 0.0714286 0
3.98938 0.0714286 0
3.98938 0 0
4.22405 0 0
3.98938 0.0714286 0
4.22405 0.0714286 0
4.22405 0 0
4.45872 0 0
4.22405 0.0714286 0
4.45872 0.0714286 0
4.45872 0 0
4.69339 0 0
4.45872 0.0714286 0
4.69339 0.0714286 0
4.69339 0 0
4.92806 0 0
4.69339 0.0714286 0
4.92806 0.0714286 0
4.92806 0 0
5.16273 0 0
4.92806 0.0714286 0
5.16273 0.0714286 0
5.16273 0 0
5.3974 0 0
5.16273 0.0714286 0
5.3974 0.0714286 0
5.3974 0 0
5.63207 0 0
5.3974 0.0714286 0
5.63207 0.0714286 0
-5.63207 0.0714286 0
-5.3974 0.0714286 0
-5.63207 0.142857 0
-5.3974 0.142857 0
-5.3974 0.0714286 0
-5.16273 0.0714286 0
-5.3974 0.142857 0
-5.16273 0.142857 0
-5.16273 0.0714286 0
-4.92806 0.0714286 0
-5.16273 0.142857 0
-4.92806 0.142857 0
-4.92806 0.0714286 0
-4.69339 0.0714286 0
-4.92806 0.142857 0
-4.69339 0.142857 0
-4.69339 0.0714286 0
-4.45872 0.0714286 0
-4.69339 0.142857 0
-4.45872 0.142857 0
-4.45872 0.0714286 0
-4.22405 0.0714286 0
-4.45872 0.142857 0
-4.22405 0.142857 0
-4.22405 0.0714286 0
-3.98938 0.0714286 0
-4.22405 0.142857 0
-3.98938 0.142857 0
-3.98938 0.0714286 0
-3.75472 0.0714286 0
-3.98938 0.142857 0
-3.75472 0.142857 0
-3.75472 0.0714286 0
-3.52005 0.0714286 0
-3.75472 0.142857 0
-3.52005 0.142857 0
-3.52005 0.0714286 0
-3.28538 0.0714286 0
-3.52005 0.142857 0
-3.28538 0.142857 0
-3.28538 0.0714286 0
-3.05071 0.0714286 0
-3.28538 0.142857 0
-3.05071 0.142857 0
-3.05071 0.0714286 0
-2.81604 0.0714286 0
-3.05071 0.142857 0
-2.81604 0.142857 0
-2.81604 0.0714286 0
-2.58137 0.0714286 0
-2.81604 0.142857 0
-2.58137 0.142857 0
-2.58137 0.0714286 0
-2.3467 0.0714286 0
-2.58137 0.142857 0
-2.3467 0.142857 0
-2.3467 0.0714286 0
-2.11203 0.0714286 0
-2.3467 0.142857 0
-2.11203 0.142857 0
-2.11203 0.0714286 0
-1.87736 0.0714286 0
-2.11203 0.142857 0
-1.87736 0.142857 0
-1.87736 0.0714286 0
-1.64269 0.0714286 0
-1.87736 0.142857 0
-1.64269 0.142857 0
-1.64269 0.0714286 0
-1.40802 0.0714286 0
-1.64269 0.142857 0
-1.40802 0.142857 0
-1.40802 0.0714286 0
-1.17335 0.0714286 0
-1.40802 0.142857 0
-1.17335 0.142857 0
-1.17335 0.0714286 0
-0.938679 0.0714286 0
-1.17335 0.142857 0
-0.938679 0.142857 0
-0.938679 0.0714286 0
-0.704009 0.0714286 0
-0.938679 0.142857 0
-0.704009 0.142857 0
-0.704009 0.0714286 0
-0.469339 0.0714286 0
-0.704009 0.142857 0
-0.469339 0.142857 0
-0.469339 0.0714286 0
-0.23467 0.0714286 0
-0.469339 0.142857 0
-0.23467 0.142857 0
-0.23467 0.0714286 0
0 0.0714286 0
-0.23467 0.142857 0
0 0.142857 0
0 0.0714286 0
0.23467 0.0714286 0
0 0.142857 0
0.23467 0.142857 0
0.23467 0.0714286 0
0.469339 0.0714286 0
0.23467 0.142857 0
0.469339 0.142857 0
0.469339 0.0714286 0
0.704009 0.0714286 0
0.469339 0.142857 0
0.704009 0.142857 0
0.704009 0.0714286 0
0.938679 0.0714286 0
0.704009 0.142857 0
0.938679 0.142857 0
0.938679 0.0714286 0
1.17335 0.0714286 0
0.938679 0.142857 0
1.17335 0.142857 0
1.17335 0.0714286 0
1.40802 0.0714286 0
1.17335 0.142857 0
1.40802 0.142857 0
1.40802 0.0714286 0
1.64269 0.0714286 0
1.40802 0.142857 0
1.64269 0.142857 0
1.64269 0.0714286 0
1.87736 0.0714286 0
1.64269 0.142857 0
1.87736 0.142857 0
1.87736 0.0714286 0
2.11203 0.0714286 0
1.87736 0.142857 0
2.11203 0.142857 0
2.11203 0.0714286 0
2.3467 0.0714286 0
2.11203 0.142857 0
2.3467 0.142857 0
2.3467 0.0714286 0
2.58137 0.0714286 0
2.3467 0.142857 0
2.58137 0.142857 0
2.58137 0.0714286 0
2.81604 0.0714286 0
2.58137 0.142857 0
2.81604 0.142857 0
2.81604 0.0714286 0
3.05071 0.0714286 0
2.81604 0.142857 0
3.05071 0.142857 0
3.05071 0.0714286 0
3.28538 0.0714286 0
3.05071 0.142857 0
3.28538 0.142857 0
3.28538 0.0714286 0
3.52005 0.0714286 0
3.28538 0.142857 0
3.52005 0.142857 0
3.52005 0.0714286 0
3.75472 0.0714286 0
3.52005 0.142857 0
3.75472 0.142857 0
3.75472 0.0714286 0
3.98938 0.0714286 0
3.75472 0.142857 0
3.98938 0.142857 0
3.98938 0.0714286 0
4.22405 0.0714286 0
3.98938 0.142857 0
4.22405 0.142857 0
4.22405 0.0714286 0
4.45872 0.0714286 0
4.22405 0.142857 0
4.45872 0.142857 0
4.45872 0.0714286 0
4.69339 0.0714286 0
4.45872 0.142857 0
4.69339 0.142857 0
4.69339 0.0714286 0
4.92806 0.0714286 0
4.69339 0.142857 0
4.92806 0.142857 0
4.92806 0.0714286 0
5.16273 0.0714286 0
4.92806 0.142857 0
5.16273 0.142857 0
5.16273 0.0714286 0
5.3974 0.0714286 0
5.16273 0.142857 0
5.3974 0.142857 0
5.3974 0.0714286 0
5.63207 0.0714286 0
5.3974 0.142857 0
5.63207 0.142857 0
-5.63207 0.142857 0
-5.3974 0.142857 0
-5.63207 0.214286 0
-5.3974 0.214286 0
-5.3974 0.142857 0
-5.16273 0.142857 0
-5.3974 0.214286 0
-5.16273 0.214286 0
-5.16273 0.142857 0
-4.92806 0.142857 0
-5.16273 0.214286 0
-4.92806 0.214286 0
-4.92806 0.142857 0
-4.69339 0.142857 0
-4.92806 0.214286 0
-4.69339 0.214286 0
-4.69339 0.142857 0
-4.45872 0.142857 0
-4.69339 0.214286 0
-4.45872 0.214286 0
-4.45872 0.142857 0
-4.22405 0.142857 0
-4.45872 0.214286 0
-4.22405 0.214286 0
-4.22405 0.142857 0
-3.98938 0.142857 0
-4.22405 0.214286 0
-3.98938 0.214286 0
-3.98938 0.142857 0
-3.75472 0.142857 0
-3.98938 0.214286 0
-3.75472 0.214286 0
-3.75472 0.142857 0
-3.52005 0.142857 0
-3.75472 0.214286 0
-3.52005 0.214286 0
-3.52005 0.142857 0
-3.28538 0.142857 0
-3.52005 0.214286 0
-3.28538 0.214286 0
-3.28538 0.142857 0
-3.05071 0.142857 0
-3.28538 0.214286 0
-3.05071 0.214286 0
-3.05071 0.142857 0
-2.81604 0.142857 0
-3.05071 0.214286 0
-2.81604 0.214286 0
-2.81604 0.142857 0
-2.58137 0.142857 0
-2.81604 0.214286 0
-2.58137 0.214286 0
-2.58137 0.142857 0
-2.3467 0.142857 0
-2.58137 0.214286 0
-2.3467 0.214286 0
-2.3467 0.142857 0
-2.11203 0.142857 0
-2.3467 0.214286 0
-2.11203 0.214286 0
-2.11203 0.142857 0
-1.87736 0.142857 0
-2.11203 0.214286 0
-1.87736 0.214286 0
-1.87736 0.142857 0
-1.64269 0.142857 0
-1.87736 0.214286 0
-1.64269 0.214286 0
-1.64269 0.142857 0
-1.40802 0.142857 0
-1.64269 0.214286 0
-1.40802 0.214286 0
-1.40802 0.142857 0
-1.17335 0.142857 0
-1.40802 0.214286 0
-1.17335 0.214286 0
-1.17335 0.142857 0
-0.938679 0.142857 0
-1.17335 0.214286 0
-0.938679 0.214286 0
-0.938679 0.142857 0
-0.704009 0.142857 0
-0.938679 0.214286 0
-0.704009 0.214286 0
-0.704009 0.142857 0
-0.469339 0.142857 0
-0.704009 0.214286 0
-0.469339 0.214286 0
-0.469339 0.142857 0
-0.23467 0.142857 0
-0.469339 0.214286 0
-0.23467 0.214286 0
-0.23467 0.142857 0
0 0.142857 0
-0.23467 0.214286 0
0 0.214286 0
0 0.142857 0
0.23467 0.142857 0
0 0.214286 0
0.23467 0.214286 0
0.23467 0.142857 0
0.469339 0.142857 0
0.23467 0.214286 0
0.469339 0.214286 0
0.469339 0.142857 0
0.704009 0.142857 0
0.469339 0.214286 0
0.704009 0.214286 0
0.704009 0.142857 0
0.938679 0.142857 0
0.704009 0.214286 0
0.938679 0.214286 0
0.938679 0.142857 0
1.17335 0.142857 0
0.938679 0.214286 0
1.17335 0.214286 0
1.17335 0.142857 0
1.40802 0.142857 0
1.17335 0.214286 0
1.40802 0.214286 0
1.40802 0.142857 0
1.64269 0.142857 0
1.40802 0.214286 0
1.64269 0.214286 0
1.64269 0.142857 0
1.87736 0.142857 0
1.64269 0.214286 0
1.87736 0.214286 0
1.87736 0.142857 0
2.11203 0.142857 0
1.87736 0.214286 0
2.11203 0.214286 0
2.11203 0.142857 0
2.3467 0.142857 0
2.11203 0.214286 0
2.3467 0.214286 0
2.3467 0.142857 0
2.58137 0.142857 0
2.3467 0.214286 0
2.58137 0.214286 0
2.58137 0.142857 0
2.81604 0.142857 0
2.58137 0.214286 0
2.81604 0.214286 0
2.81604 0.142857 0
3.05071 0.142857 0
2.81604 0.214286 0
[...]
POINT_DATA 2688
SCALARS x1_displacement double 1
LOOKUP_TABLE default
-1.29047e-17 -0.0351387 -8.58265e-18 -0.0343889 -0.0351387 -0.069277 -0.0343889 -0.0680026 -0.069277 -0.0992339 -0.0680026 -0.0978689 -0.0992339 -0.117867 -0.0978689 -0.116884 -0.117867 -0.114792 -0.116884 -0.114369 -0.114792 -0.0870234 -0.114369 -0.0869628 -0.0870234 -0.0574286 -0.0869628 -0.0577427 -0.0574286 -0.049835 -0.0577427 -0.0507702 -0.049835 -0.0618269 -0.0507702 -0.0632728 -0.0618269 -0.0821975 -0.0632728 -0.0837533 -0.0821975 -0.102295 -0.0837533 -0.103607 -0.102295 -0.117399 -0.103607 -0.11832 -0.117399 -0.125695 -0.11832 -0.126239 -0.125695 -0.127139 -0.126239 -0.127391 -0.127139 -0.122645 -0.127391 -0.122702 -0.122645 -0.11356 -0.122702 -0.113503 -0.11356 -0.101324 -0.113503 -0.101214 -0.101324 -0.0872352 -0.101214 -0.0871131 -0.0872352 -0.072316 -0.0871131 -0.0722054 -0.072316 -0.0572572 -0.0722054 -0.057169 -0.0572572 -0.0424415 -0.057169 -0.0423784 -0.0424415 -0.0280037 -0.0423784 -0.0279641 -0.0280037 -0.0139049 -0.0279641 -0.013886 -0.0139049 0 -0.013886 0 0 0.0139049 0 0.013886 0.0139049 0.0280037 0.013886 0.0279641 0.0280037 0.0424415 0.0279641 0.0423784 0.0424415 0.0572572 0.0423784 0.057169 0.0572572 0.072316 0.057169 0.0722054 0.072316 0.0872352 0.0722054 0.0871131 0.0872352 0.101324 0.0871131 0.101214 0.101324 0.11356 0.101214 0.113503 0.11356 0.122645 0.113503 0.122702 0.122645 0.127139 0.122702 0.127391 0.127139 0.125695 0.127391 0.126239 0.125695 0.117399 0.126239 0.11832 0.117399 0.102295 0.11832 0.103607 0.102295 0.0821975 0.103607 0.0837533 0.0821975 0.0618269 0.0837533 0.0632728 0.0618269 0.049835 0.0632728 0.0507702 0.049835 0.0574286 0.0507702 0.0577427 0.0574286 0.0870234 0.0577427 0.0869628 0.0870234 0.114792 0.0869628 0.114369 0.114792 0.117867 0.114369 0.116884 0.117867 0.0992339 0.116884 0.0978689 0.0992339 0.069277 0.0978689 0.0680026 0.069277 0.0351387 0.0680026 0.0343889 0.0351387 -1.29047e-17 0.0343889 -8.58265e-18 -8.58265e-18 -0.0343889 -7.31897e-18 -0.0322193 -0.0343889 -0.0680026 -0.0322193 -0.0642749 -0.0680026 -0.0978689 -0.0642749 -0.0938262 -0.0978689 -0.116884 -0.0938262 -0.113989 -0.116884 -0.114369 -0.113989 -0.11322 -0.114369 -0.0869628 -0.11322 -0.0868006 -0.0869628 -0.0577427 -0.0868006 -0.0585787 -0.0577427 -0.0507702 -0.0585787 -0.0534896 -0.0507702 -0.0632728 -0.0534896 -0.0674722 -0.0632728 -0.0837533 -0.0674722 -0.0881884 -0.0837533 -0.103607 -0.0881884 -0.107281 -0.103607 -0.11832 -0.107281 -0.120859 -0.11832 -0.126239 -0.120859 -0.127716 -0.126239 -0.127391 -0.127716 -0.12806 -0.127391 -0.122702 -0.12806 -0.122834 -0.122702 -0.113503 -0.122834 -0.113327 -0.113503 -0.101214 -0.113327 -0.100897 -0.101214 -0.0871131 -0.100897 -0.0867675 -0.0871131 -0.0722054 -0.0867675 -0.0718947 -0.0722054 -0.057169 -0.0718947 -0.0569226 -0.057169 -0.0423784 -0.0569226 -0.0422028 -0.0423784 -0.0279641 -0.0422028 -0.0278544 -0.0279641 -0.013886 -0.0278544 -0.013834 -0.013886 0 -0.013834 0 0 0.013886 0 0.013834 0.013886 0.0279641 0.013834 0.0278544 0.0279641 0.0423784 0.0278544 0.0422028 0.0423784 0.057169 0.0422028 0.0569226 0.057169 0.0722054 0.0569226 0.0718947 0.0722054 0.0871131 0.0718947 0.0867675 0.0871131 0.101214 0.0867675 0.100897 0.101214 0.113503 0.100897 0.113327 0.113503 0.122702 0.113327 0.122834 0.122702 0.127391 0.122834 0.12806 0.127391 0.126239 0.12806 0.127716 0.126239 0.11832 0.127716 0.120859 0.11832 0.103607 0.120859 0.107281 0.103607 0.0837533 0.107281 0.0881884 0.0837533 0.0632728 0.0881884 0.0674722 0.0632728 0.0507702 0.0674722 0.0534896 0.0507702 0.0577427 0.0534896 0.0585787 0.0577427 0.0869628 0.0585787 0.0868006 0.0869628 0.114369 0.0868006 0.11322 0.114369 0.116884 0.11322 0.113989 0.116884 0.0978689 0.113989 0.0938262 0.0978689 0.0680026 0.0938262 0.0642749 0.0680026 0.0343889 0.0642749 0.0322193 0.0343889 -8.58265e-18 0.0322193 -7.31897e-18 -7.31897e-18 -0.0322193 -3.90306e-18 -0.0287452 -0.0322193 -0.0642749 -0.0287452 -0.0582295 -0.0642749 -0.0938262 -0.0582295 -0.0871646 -0.0938262 -0.113989 -0.0871646 -0.109186 -0.113989 -0.11322 -0.109186 -0.111394 -0.11322 -0.0868006 -0.111394 -0.0865523 -0.0868006 -0.0585787 -0.0865523 -0.0599024 -0.0585787 -0.0534896 -0.0599024 -0.0579641 -0.0534896 -0.0674722 -0.0579641 -0.0742889 -0.0674722 -0.0881884 -0.0742889 -0.0952247 -0.0881884 -0.107281 -0.0952247 -0.112988 -0.107281 -0.120859 -0.112988 -0.124741 -0.120859 -0.127716 -0.124741 -0.129944 -0.127716 -0.12806 -0.129944 -0.129048 -0.12806 -0.122834 -0.129048 -0.123007 -0.122834 -0.113327 -0.123007 -0.113035 -0.113327 -0.100897 -0.113035 -0.100397 -0.100897 -0.0867675 -0.100397 -0.0862279 -0.0867675 -0.0718947 -0.0862279 -0.0714129 -0.0718947 -0.0569226 -0.0714129 -0.0565422 -0.0569226 -0.0422028 -0.0565422 -0.041933 -0.0422028 -0.0278544 -0.041933 -0.0276864 -0.0278544 -0.013834 -0.0276864 -0.0137544 -0.013834 0 -0.0137544 0 0 0.013834 0 0.0137544 0.013834 0.0278544 0.0137544 0.0276864 0.0278544 0.0422028 0.0276864 0.041933 0.0422028 0.0569226 0.041933 0.0565422 0.0569226 0.0718947 0.0565422 0.0714129 0.0718947 0.0867675 0.0714129 0.0862279 0.0867675 0.100897 0.0862279 0.100397 0.100897 0.113327 0.100397 0.113035 0.113327 0.122834 0.113035 0.123007 0.122834 0.12806 0.123007 0.129048 0.12806 0.127716 0.129048 0.129944 0.127716 0.120859 0.129944 0.124741 0.120859 0.107281 0.124741 0.112988 0.107281 0.0881884 0.112988 0.0952247 0.0881884 0.0674722 0.0952247 0.0742889 0.0674722 0.0534896 0.0742889 0.0579641 0.0534896 0.0585787 0.0579641 0.0599024 0.0585787 0.0868006 0.0599024 0.0865523 0.0868006 0.11322 0.0865523 0.111394 0.11322 0.113989 0.111394 0.109186 0.113989 0.0938262 0.109186 0.0871646 0.0938262 0.0642749 0.0871646 0.0582295 0.0642749 0.0322193 0.0582295 0.0287452 0.0322193 -7.31897e-18 0.0287452 -3.90306e-18 -3.90306e-18 -0.0287452 -2.58117e-19 -0.024053 -0.0287452 -0.0582295 -0.024053 -0.0499014 -0.0582295 -0.0871646 -0.0499014 -0.0777252 -0.0871646 -0.109186 -0.0777252 -0.102204 -0.109186 -0.111394 -0.102204 -0.108766 -0.111394 -0.0865523 -0.108766 -0.0862256 -0.0865523 -0.0599024 -0.0862256 -0.0618313 -0.0599024 -0.0579641 -0.0618313 -0.0644207 -0.0579641 -0.0742889 -0.0644207 -0.0837846 -0.0742889 -0.0952247 -0.0837846 -0.104667 -0.0952247 -0.112988 -0.104667 -0.120413 -0.112988 -0.124741 -0.120413 -0.129673 -0.124741 -0.129944 -0.129673 -0.132715 -0.129944 -0.129048 -0.132715 -0.130232 -0.129048 -0.123007 -0.130232 -0.123161 -0.123007 -0.113035 -0.123161 -0.11261 -0.113035 -0.100397 -0.11261 -0.0997211 -0.100397 -0.0862279 -0.0997211 -0.0855153 -0.0862279 -0.0714129 -0.0855153 -0.0707846 -0.0714129 -0.0565422 -0.0707846 -0.056051 -0.0565422 -0.041933 -0.056051 -0.0415874 -0.041933 -0.0276864 -0.0415874 -0.0274726 -0.0276864 -0.0137544 -0.0274726 -0.0136536 -0.0137544 0 -0.0136536 0 0 0.0137544 0 0.0136536 0.0137544 0.0276864 0.0136536 0.0274726 0.0276864 0.041933 0.0274726 0.0415874 0.041933 0.0565422 0.0415874 0.056051 0.0565422 0.0714129 0.056051 0.0707846 0.0714129 0.0862279 0.0707846 0.0855153 0.0862279 0.100397 0.0855153 0.0997211 0.100397 0.113035 0.0997211 0.11261 0.113035 0.123007 0.11261 0.123161 0.123007 0.129048 0.123161 0.130232 0.129048 0.129944 0.130232 0.132715 0.129944 0.124741 0.132715 0.129673 0.124741 0.112988 0.129673 0.120413 0.112988 0.0952247 0.120413 0.104667 0.0952247 0.0742889 0.104667 0.0837846 0.0742889 0.0579641 0.0837846 0.0644207 0.0579641 0.0599024 0.0644207 0.0618313 0.0599024 0.0865523 0.0618313 0.0862256 0.0865523 0.111394 0.0862256 0.108766 0.111394 0.109186 0.108766 0.102204 0.109186 0.0871646 0.102204 0.0777252 0.0871646 0.0582295 0.0777252 0.0499014 0.0582295 0.0287452 0.0499014 0.024053 0.0287452 -3.90306e-18 0.024053 -2.58117e-19 -2.58117e-19 -0.024053 5.37965e-19 -0.0182361 -0.024053 -0.0499014 -0.0182361 -0.0392916 -0.0499014 -0.0777252 -0.0392916 -0.0651853 -0.0777252 -0.102204 -0.0651853 -0.0924967 -0.102204 -0.108766 -0.0924967 -0.105035 -0.108766 -0.0862256 -0.105035 -0.0858234 -0.0862256 -0.0618313 -0.0858234 -0.0646457 -0.0618313 -0.0644207 -0.0646457 -0.073349 -0.0644207 -0.0837846 -0.073349 -0.096182 -0.0837846 -0.104667 -0.096182 -0.116355 -0.104667 -0.120413 -0.116355 -0.129227 -0.120413 -0.129673 -0.129227 -0.135345 -0.129673 -0.132715 -0.135345 -0.1358 -0.132715 -0.130232 -0.1358 -0.131466 -0.130232 -0.123161 -0.131466 -0.123217 -0.123161 -0.11261 -0.123217 -0.112021 -0.11261 -0.0997211 -0.112021 -0.0988682 -0.0997211 -0.0855153 -0.0988682 -0.0846445 -0.0855153 -0.0707846 -0.0846445 -0.0700317 -0.0707846 -0.056051 -0.0700317 -0.0554711 -0.056051 -0.0415874 -0.0554711 -0.0411846 -0.0415874 -0.0274726 -0.0411846 -0.0272262 -0.0274726 -0.0136536 -0.0272262 -0.0135384 -0.0136536 0 -0.0135384 0 0 0.0136536 0 0.0135384 0.0136536 0.0274726 0.0135384 0.0272262 0.0274726 0.0415874 0.0272262 0.0411846 0.0415874 0.056051 0.0411846 0.0554711 0.056051 0.0707846 0.0554711 0.0700317 0.0707846 0.0855153 0.0700317 0.0846445 0.0855153 0.0997211 0.0846445 0.0988682 0.0997211 0.11261 0.0988682 0.112021 0.11261 0.123161 0.112021 0.123217 0.123161 0.130232 0.123217 0.131466 0.130232 0.132715 0.131466 0.1358 0.132715 0.129673 0.1358 0.135345 0.129673 0.120413 0.135345 0.129227 0.120413 0.104667 0.129227 0.116355 0.104667 0.0837846 0.116355 0.096182 0.0837846 0.0644207 0.096182 0.073349 0.0644207 0.0618313 0.073349 0.0646457 0.0618313 0.0862256 0.0646457 0.0858234 0.0862256 0.108766 0.0858234 0.105035 0.108766 0.102204 0.105035 0.0924967 0.102204 0.0777252 0.0924967 0.0651853 0.0777252 0.0499014 0.0651853 0.0392916 0.0499014 0.024053 0.0392916 0.0182361 0.024053 -2.58117e-19 0.0182361 5.37965e-19 5.37965e-19 -0.0182361 -6.66424e-20 -0.0114301 -0.0182361 -0.0392916 -0.0114301 -0.0264483 -0.0392916 -0.0651853 -0.0264483 -0.0491311 -0.0651853 -0.0924967 -0.0491311 -0.0792181 -0.0924967 -0.105035 -0.0792181 -0.0996671 -0.105035 -0.0858234 -0.0996671 -0.0853446 -0.0858234 -0.0646457 -0.0853446 -0.0688438 -0.0646457 -0.073349 -0.0688438 -0.0855357 -0.073349 -0.096182 -0.0855357 -0.111809 -0.096182 -0.116355 -0.111809 -0.1301 -0.116355 -0.129227 -0.1301 -0.139071 -0.129227 -0.135345 -0.139071 -0.141434 -0.135345 -0.1358 -0.141434 -0.138961 -0.1358 -0.131466 -0.138961 -0.132595 -0.131466 -0.123217 -0.132595 -0.123086 -0.123217 -0.112021 -0.123086 -0.111227 -0.112021 -0.0988682 -0.111227 -0.0978302 -0.0988682 -0.0846445 -0.0978302 -0.083627 -0.0846445 -0.0700317 -0.083627 -0.0691746 -0.0700317 -0.0554711 -0.0691746 -0.0548246 -0.0554711 -0.0411846 -0.0548246 -0.0407439 -0.0411846 -0.0272262 -0.0407439 -0.0269609 -0.0272262 -0.0135384 -0.0269609 -0.0134158 -0.0135384 0 -0.0134158 0 0 0.0135384 0 0.0134158 0.0135384 0.0272262 0.0134158 0.0269609 0.0272262 0.0411846 0.0269609 0.0407439 0.0411846 0.0554711 0.0407439 0.0548246 0.0554711 0.0700317 0.0548246 0.0691746 0.0700317 0.0846445 0.0691746 0.083627 0.0846445 0.0988682 0.083627 0.0978302 0.0988682 0.112021 0.0978302 0.111227 0.112021 0.123217 0.111227 0.123086 0.123217 0.131466 0.123086 0.132595 0.131466 0.1358 0.132595 0.138961 0.1358 0.135345 0.138961 0.141434 0.135345 0.129227 0.141434 0.139071 0.129227 0.116355 0.139071 0.1301 0.116355 0.096182 0.1301 0.111809 0.096182 0.073349 0.111809 0.0855357 0.073349 0.0646457 0.0855357 0.0688438 0.0646457 0.0858234 0.0688438 0.0853446 0.0858234 0.105035 0.0853446 0.0996671 0.105035 0.0924967 0.0996671 0.0792181 0.0924967 0.0651853 0.0792181 0.0491311 0.0651853 0.0392916 0.0491311 0.0264483 0.0392916 0.0182361 0.0264483 0.0114301 0.0182361 5.37965e-19 0.0114301 -6.66424e-20 -6.66424e-20 -0.0114301 2.19994e-18 -0.00383119 -0.0114301 -0.0264483 -0.00383119 -0.0115563 -0.0264483 -0.0491311 -0.0115563 -0.0291688 -0.0491311 -0.0792181 -0.0291688 -0.0611795 -0.0792181 -0.0996671 -0.0611795 -0.0917879 -0.0996671 -0.0853446 -0.0917879 -0.0847843 -0.0853446 -0.0688438 -0.0847843 -0.075259 -0.0688438 -0.0855357 -0.075259 -0.102127 -0.0855357 -0.111809 -0.102127 -0.131007 -0.111809 -0.1301 -0.131007 -0.145604 -0.1301 -0.139071 -0.145604 -0.149536 -0.139071 -0.141434 -0.149536 -0.147607 -0.141434 -0.138961 -0.147607 -0.141957 -0.138961 -0.132595 -0.141957 -0.133457 -0.132595 -0.123086 -0.133457 -0.122673 -0.123086 -0.111227 -0.122673 -0.110182 -0.111227 -0.0978302 -0.110182 -0.0965959 -0.0978302 -0.083627 -0.0965959 -0.0824723 -0.083627 -0.0691746 -0.0824723 -0.0682329 -0.0691746 -0.0548246 -0.0682329 -0.0541338 -0.0548246 -0.0407439 -0.0541338 -0.0402849 -0.0407439 -0.0269609 -0.0402849 -0.0266909 -0.0269609 -0.0134158 -0.0266909 -0.0132932 -0.0134158 0 -0.0132932 0 0 0.0134158 0 0.0132932 0.0134158 0.0269609 0.0132932 0.0266909 0.0269609 0.0407439 0.0266909 0.0402849 0.0407439 0.0548246 0.0402849 0.0541338 0.0548246 0.0691746 0.0541338 0.0682329 0.0691746 0.083627 0.0682329 0.0824723 0.083627 0.0978302 0.0824723 0.0965959 0.0978302 0.111227 0.0965959 0.110182 0.111227 0.123086 0.110182 0.122673 0.123086 0.132595 0.122673 0.133457 0.132595 0.138961 0.133457 0.141957 0.138961 0.141434 0.141957 0.147607 0.141434 0.139071 0.147607 0.149536 0.139071 0.1301 0.149536 0.145604 0.1301 0.111809 0.145604 0.131007 0.111809 0.0855357 0.131007 0.102127 0.0855357 0.0688438 0.102127 0.075259 0.0688438 0.0853446 0.075259 0.0847843 0.0853446 0.0996671 0.0847843 0.0917879 0.0996671 0.0792181 0.0917879 0.0611795 0.0792181 0.0491311 0.0611795 0.0291688 0.0491311 0.0264483 0.0291688 0.0115563 0.0264483 0.0114301 0.0115563 0.00383119 0.0114301 -6.66424e-20 0.00383119 2.19994e-18 2.19994e-18 -0.00383119 4.81072e-18 0.00430928 -0.00383119 -0.0115563 0.00430928 0.00498014 -0.0115563 -0.0291688 0.00498014 -0.00512229 -0.0291688 -0.0611795 -0.00512229 -0.0368054 -0.0611795 -0.0917879 -0.0368054 -0.0799633 -0.0917879 -0.0847843 -0.0799633 -0.0841314 -0.0847843 -0.075259 -0.0841314 -0.0852836 -0.075259 -0.102127 -0.0852836 -0.124698 -0.102127 -0.131007 -0.124698 -0.153942 -0.131007 -0.145604 -0.153942 -0.162376 -0.145604 -0.149536 -0.162376 -0.160166 -0.149536 -0.147607 -0.160166 -0.153524 -0.147607 -0.141957 -0.153524 -0.144542 -0.141957 -0.133457 -0.144542 -0.13389 -0.133457 -0.122673 -0.13389 -0.121881 -0.122673 -0.110182 -0.121881 -0.108841 -0.110182 -0.0965959 -0.108841 -0.0951542 -0.0965959 -0.0824723 -0.0951542 -0.0811908 -0.0824723 -0.0682329 -0.0811908 -0.0672275 -0.0682329 -0.0541338 -0.0672275 -0.0534217 -0.0541338 -0.0402849 -0.0534217 -0.0398278 -0.0402849 -0.0266909 -0.0398278 -0.0264308 -0.0266909 -0.0132932 -0.0264308 -0.013178 -0.0132932 0 -0.013178 0 0 0.0132932 0 0.013178 0.0132932 0.0266909 0.013178 0.0264308 0.0266909 0.0402849 0.0264308 0.0398278 0.0402849 0.0541338 0.0398278 0.0534217 0.0541338 0.0682329 0.0534217 0.0672275 0.0682329 0.0824723 0.0672275 0.0811908 0.0824723 0.0965959 0.0811908 0.0951542 0.0965959 0.110182 0.0951542 0.108841 0.110182 0.122673 0.108841 0.121881 0.122673 0.133457 0.121881 0.13389 0.133457 0.141957 0.13389 0.144542 0.141957 0.147607 0.144542 0.153524 0.147607 0.149536 0.153524 0.160166 0.149536 0.145604 0.160166 0.162376 0.145604 0.131007 0.162376 0.153942 0.131007 0.102127 0.153942 0.124698 0.102127 0.075259 0.124698 0.0852836 0.075259 0.0847843 0.0852836 0.0841314 0.0847843 0.0917879 0.0841314 0.0799633 0.0917879 0.0611795 0.0799633 0.0368054 0.0611795 0.0291688 0.0368054 0.00512229 0.0291688 0.0115563 0.00512229 -0.00498014 0.0115563 0.00383119 -0.00498014 -0.00430928 0.00383119 2.19994e-18 -0.00430928 4.81072e-18 4.81072e-18 0.00430928 8.75048e-18 0.0127216 0.00430928 0.00498014 0.0127216 0.0225162 0.00498014 -0.00512229 0.0225162 0.0226227 -0.00512229 -0.0368054 0.0226227 -0.0041714 -0.0368054 -0.0799633 -0.0041714 -0.0617771 -0.0799633 -0.0841314 -0.0617771 -0.0833681 -0.0841314 -0.0852836 -0.0833681 -0.101315 -0.0852836 -0.124698 -0.101315 -0.155254 -0.124698 -0.153942 -0.155254 -0.180265 -0.153942 -0.162376 -0.180265 -0.179697 -0.162376 -0.160166 -0.179697 -0.170493 -0.160166 -0.153524 -0.170493 -0.158851 -0.153524 -0.144542 -0.158851 -0.146479 -0.144542 -0.13389 -0.146479 -0.133735 -0.13389 -0.121881 -0.133735 -0.120616 -0.121881 -0.108841 -0.120616 -0.107158 -0.108841 -0.0951542 -0.107158 -0.093496 -0.0951542 -0.0811908 -0.093496 -0.0797951 -0.0811908 -0.0672275 -0.0797951 -0.0661811 -0.0672275 -0.0534217 -0.0661811 -0.0527129 -0.0534217 -0.0398278 -0.0527129 -0.0393939 -0.0398278 -0.0264308 -0.0393939 -0.0261957 -0.0264308 -0.013178 -0.0261957 -0.0130781 -0.013178 0 -0.0130781 0 0 0.013178 0 0.0130781 0.013178 0.0264308 0.0130781 0.0261957 0.0264308 0.0398278 0.0261957 0.0393939 0.0398278 0.0534217 0.0393939 0.0527129 0.0534217 0.0672275 0.0527129 0.0661811 0.0672275 0.0811908 0.0661811 0.0797951 0.0811908 0.0951542 0.0797951 0.093496 0.0951542 0.108841 0.093496 0.107158 0.108841 0.121881 0.107158 0.120616 0.121881 0.13389 0.120616 0.133735 0.13389 0.144542 0.133735 0.146479 0.144542 0.153524 0.146479 0.158851 0.153524 0.160166 0.158851 0.170493 0.160166 0.162376 0.170493 0.179697 0.162376 0.153942 0.179697 0.180265 0.153942 0.124698 0.180265 0.155254 0.124698 0.0852836 0.155254 0.101315 0.0852836 0.0841314 0.101315 0.0833681 0.0841314 0.0799633 0.0833681 0.0617771 0.0799633 0.0368054 0.0617771 0.0041714 0.0368054 0.00512229 0.0041714 -0.0226227 0.00512229 -0.00498014 -0.0226227 -0.0225162 -0.00498014 -0.00430928 -0.0225162 -0.0127216 -0.00430928 4.81072e-18 -0.0127216 8.75048e-18 8.75048e-18 0.0127216 9.06887e-18 0.021146 0.0127216 0.0225162 0.021146 0.0403142 0.0225162 0.0226227 0.0403142 0.052632 0.0226227 -0.0041714 0.052632 0.0385196 -0.0041714 -0.0617771 0.0385196 -0.0328244 -0.0617771 -0.0833681 -0.0328244 -0.0824867 -0.0833681 -0.101315 -0.0824867 -0.127823 -0.101315 -0.155254 -0.127823 -0.195799 -0.155254 -0.180265 -0.195799 -0.208581 -0.180265 -0.179697 -0.208581 -0.196747 -0.179697 -0.170493 -0.196747 -0.180061 -0.170493 -0.158851 -0.180061 -0.163253 -0.158851 -0.146479 -0.163253 -0.147536 -0.146479 -0.133735 -0.147536 -0.132839 -0.133735 -0.120616 -0.132839 -0.118789 -0.120616 -0.107158 -0.118789 -0.105096 -0.107158 -0.093496 -0.105096 -0.0916173 -0.093496 -0.0797951 -0.0916173 -0.078302 -0.0797951 -0.0661811 -0.078302 -0.0651196 -0.0661811 -0.0527129 -0.0651196 -0.052034 -0.0527129 -0.0393939 -0.052034 -0.0390056 -0.0393939 -0.0261957 -0.0390056 -0.0260011 -0.0261957 -0.0130781 -0.0260011 -0.0130013 -0.0130781 0 -0.0130013 0 0 0.0130781 0 0.0130013 0.0130781 0.0261957 0.0130013 0.0260011 0.0261957 0.0393939 0.0260011 0.0390056 0.0393939 0.0527129 0.0390056 0.052034 0.0527129 0.0661811 0.052034 0.0651196 0.0661811 0.0797951 0.0651196 0.078302 0.0797951 0.093496 0.078302 0.0916173 0.093496 0.107158 0.0916173 0.105096 0.107158 0.120616 0.105096 0.118789 0.120616 0.133735 0.118789 0.132839 0.133735 0.146479 0.132839 0.147536 0.146479 0.158851 0.147536 0.163253 0.158851 0.170493 0.163253 0.180061 0.170493 0.179697 0.180061 0.196747 0.179697 0.180265 0.196747 0.208581 0.180265 0.155254 0.208581 0.195799 0.155254 0.101315 0.195799 0.127823 0.101315 0.0833681 0.127823 0.0824867 0.0833681 0.0617771 0.0824867 0.0328244 0.0617771 0.0041714 0.0328244 -0.0385196 0.0041714 -0.0226227 -0.0385196 -0.052632 -0.0226227 -0.0225162 -0.052632 -0.0403142 -0.0225162 -0.0127216 -0.0403142 -0.021146 -0.0127216 8.75048e-18 -0.021146 9.06887e-18 9.06887e-18 0.021146 3.51812e-18 0.0292878 0.021146 0.0403142 0.0292878 0.0578436 0.0403142 0.052632 0.0578436 0.0824416 0.052632 0.0385196 0.0824416 0.0903733 0.0385196 -0.0328244 0.0903733 0.0162595 -0.0328244 -0.0824867 0.0162595 -0.0815566 -0.0824867 -0.127823 -0.0815566 -0.174534 -0.127823 -0.195799 -0.174534 -0.245693 -0.195799 -0.208581 -0.245693 -0.236414 -0.208581 -0.196747 -0.236414 -0.212902 -0.196747 -0.180061 -0.212902 -0.188392 -0.180061 -0.163253 -0.188392 -0.166421 -0.163253 -0.147536 -0.166421 -0.147493 -0.147536 -0.132839 -0.147493 -0.131058 -0.132839 -0.118789 -0.131058 -0.116319 -0.118789 -0.105096 -0.116319 -0.102621 -0.105096 -0.0916173 -0.102621 -0.089521 -0.0916173 -0.078302 -0.089521 -0.076734 -0.078302 -0.0651196 -0.076734 -0.0640729 -0.0651196 -0.052034 -0.0640729 -0.0514142 -0.052034 -0.0390056 -0.0514142 -0.0386862 -0.0390056 -0.0260011 -0.0386862 -0.0258631 -0.0260011 -