# vtk DataFile Version 3.0
#This file was generated by the deal.II library on 2017/9/27 at 13:18:12
ASCII
DATASET UNSTRUCTURED_GRID

POINTS 2688 double
-5.63207 0 0
-5.3974 0 0
-5.63207 0.0714286 0
-5.3974 0.0714286 0
-5.3974 0 0
-5.16273 0 0
-5.3974 0.0714286 0
-5.16273 0.0714286 0
-5.16273 0 0
-4.92806 0 0
-5.16273 0.0714286 0
-4.92806 0.0714286 0
-4.92806 0 0
-4.69339 0 0
-4.92806 0.0714286 0
-4.69339 0.0714286 0
-4.69339 0 0
-4.45872 0 0
-4.69339 0.0714286 0
-4.45872 0.0714286 0
-4.45872 0 0
-4.22405 0 0
-4.45872 0.0714286 0
-4.22405 0.0714286 0
-4.22405 0 0
-3.98938 0 0
-4.22405 0.0714286 0
-3.98938 0.0714286 0
-3.98938 0 0
-3.75472 0 0
-3.98938 0.0714286 0
-3.75472 0.0714286 0
-3.75472 0 0
-3.52005 0 0
-3.75472 0.0714286 0
-3.52005 0.0714286 0
-3.52005 0 0
-3.28538 0 0
-3.52005 0.0714286 0
-3.28538 0.0714286 0
-3.28538 0 0
-3.05071 0 0
-3.28538 0.0714286 0
-3.05071 0.0714286 0
-3.05071 0 0
-2.81604 0 0
-3.05071 0.0714286 0
-2.81604 0.0714286 0
-2.81604 0 0
-2.58137 0 0
-2.81604 0.0714286 0
-2.58137 0.0714286 0
-2.58137 0 0
-2.3467 0 0
-2.58137 0.0714286 0
-2.3467 0.0714286 0
-2.3467 0 0
-2.11203 0 0
-2.3467 0.0714286 0
-2.11203 0.0714286 0
-2.11203 0 0
-1.87736 0 0
-2.11203 0.0714286 0
-1.87736 0.0714286 0
-1.87736 0 0
-1.64269 0 0
-1.87736 0.0714286 0
-1.64269 0.0714286 0
-1.64269 0 0
-1.40802 0 0
-1.64269 0.0714286 0
-1.40802 0.0714286 0
-1.40802 0 0
-1.17335 0 0
-1.40802 0.0714286 0
-1.17335 0.0714286 0
-1.17335 0 0
-0.938679 0 0
-1.17335 0.0714286 0
-0.938679 0.0714286 0
-0.938679 0 0
-0.704009 0 0
-0.938679 0.0714286 0
-0.704009 0.0714286 0
-0.704009 0 0
-0.469339 0 0
-0.704009 0.0714286 0
-0.469339 0.0714286 0
-0.469339 0 0
-0.23467 0 0
-0.469339 0.0714286 0
-0.23467 0.0714286 0
-0.23467 0 0
0 0 0
-0.23467 0.0714286 0
0 0.0714286 0
0 0 0
0.23467 0 0
0 0.0714286 0
0.23467 0.0714286 0
0.23467 0 0
0.469339 0 0
0.23467 0.0714286 0
0.469339 0.0714286 0
0.469339 0 0
0.704009 0 0
0.469339 0.0714286 0
0.704009 0.0714286 0
0.704009 0 0
0.938679 0 0
0.704009 0.0714286 0
0.938679 0.0714286 0
0.938679 0 0
1.17335 0 0
0.938679 0.0714286 0
1.17335 0.0714286 0
1.17335 0 0
1.40802 0 0
1.17335 0.0714286 0
1.40802 0.0714286 0
1.40802 0 0
1.64269 0 0
1.40802 0.0714286 0
1.64269 0.0714286 0
1.64269 0 0
1.87736 0 0
1.64269 0.0714286 0
1.87736 0.0714286 0
1.87736 0 0
2.11203 0 0
1.87736 0.0714286 0
2.11203 0.0714286 0
2.11203 0 0
2.3467 0 0
2.11203 0.0714286 0
2.3467 0.0714286 0
2.3467 0 0
2.58137 0 0
2.3467 0.0714286 0
2.58137 0.0714286 0
2.58137 0 0
2.81604 0 0
2.58137 0.0714286 0
2.81604 0.0714286 0
2.81604 0 0
3.05071 0 0
2.81604 0.0714286 0
3.05071 0.0714286 0
3.05071 0 0
3.28538 0 0
3.05071 0.0714286 0
3.28538 0.0714286 0
3.28538 0 0
3.52005 0 0
3.28538 0.0714286 0
3.52005 0.0714286 0
3.52005 0 0
3.75472 0 0
3.52005 0.0714286 0
3.75472 0.0714286 0
3.75472 0 0
3.98938 0 0
3.75472 0.0714286 0
3.98938 0.0714286 0
3.98938 0 0
4.22405 0 0
3.98938 0.0714286 0
4.22405 0.0714286 0
4.22405 0 0
4.45872 0 0
4.22405 0.0714286 0
4.45872 0.0714286 0
4.45872 0 0
4.69339 0 0
4.45872 0.0714286 0
4.69339 0.0714286 0
4.69339 0 0
4.92806 0 0
4.69339 0.0714286 0
4.92806 0.0714286 0
4.92806 0 0
5.16273 0 0
4.92806 0.0714286 0
5.16273 0.0714286 0
5.16273 0 0
5.3974 0 0
5.16273 0.0714286 0
5.3974 0.0714286 0
5.3974 0 0
5.63207 0 0
5.3974 0.0714286 0
5.63207 0.0714286 0
-5.63207 0.0714286 0
-5.3974 0.0714286 0
-5.63207 0.142857 0
-5.3974 0.142857 0
-5.3974 0.0714286 0
-5.16273 0.0714286 0
-5.3974 0.142857 0
-5.16273 0.142857 0
-5.16273 0.0714286 0
-4.92806 0.0714286 0
-5.16273 0.142857 0
-4.92806 0.142857 0
-4.92806 0.0714286 0
-4.69339 0.0714286 0
-4.92806 0.142857 0
-4.69339 0.142857 0
-4.69339 0.0714286 0
-4.45872 0.0714286 0
-4.69339 0.142857 0
-4.45872 0.142857 0
-4.45872 0.0714286 0
-4.22405 0.0714286 0
-4.45872 0.142857 0
-4.22405 0.142857 0
-4.22405 0.0714286 0
-3.98938 0.0714286 0
-4.22405 0.142857 0
-3.98938 0.142857 0
-3.98938 0.0714286 0
-3.75472 0.0714286 0
-3.98938 0.142857 0
-3.75472 0.142857 0
-3.75472 0.0714286 0
-3.52005 0.0714286 0
-3.75472 0.142857 0
-3.52005 0.142857 0
-3.52005 0.0714286 0
-3.28538 0.0714286 0
-3.52005 0.142857 0
-3.28538 0.142857 0
-3.28538 0.0714286 0
-3.05071 0.0714286 0
-3.28538 0.142857 0
-3.05071 0.142857 0
-3.05071 0.0714286 0
-2.81604 0.0714286 0
-3.05071 0.142857 0
-2.81604 0.142857 0
-2.81604 0.0714286 0
-2.58137 0.0714286 0
-2.81604 0.142857 0
-2.58137 0.142857 0
-2.58137 0.0714286 0
-2.3467 0.0714286 0
-2.58137 0.142857 0
-2.3467 0.142857 0
-2.3467 0.0714286 0
-2.11203 0.0714286 0
-2.3467 0.142857 0
-2.11203 0.142857 0
-2.11203 0.0714286 0
-1.87736 0.0714286 0
-2.11203 0.142857 0
-1.87736 0.142857 0
-1.87736 0.0714286 0
-1.64269 0.0714286 0
-1.87736 0.142857 0
-1.64269 0.142857 0
-1.64269 0.0714286 0
-1.40802 0.0714286 0
-1.64269 0.142857 0
-1.40802 0.142857 0
-1.40802 0.0714286 0
-1.17335 0.0714286 0
-1.40802 0.142857 0
-1.17335 0.142857 0
-1.17335 0.0714286 0
-0.938679 0.0714286 0
-1.17335 0.142857 0
-0.938679 0.142857 0
-0.938679 0.0714286 0
-0.704009 0.0714286 0
-0.938679 0.142857 0
-0.704009 0.142857 0
-0.704009 0.0714286 0
-0.469339 0.0714286 0
-0.704009 0.142857 0
-0.469339 0.142857 0
-0.469339 0.0714286 0
-0.23467 0.0714286 0
-0.469339 0.142857 0
-0.23467 0.142857 0
-0.23467 0.0714286 0
0 0.0714286 0
-0.23467 0.142857 0
0 0.142857 0
0 0.0714286 0
0.23467 0.0714286 0
0 0.142857 0
0.23467 0.142857 0
0.23467 0.0714286 0
0.469339 0.0714286 0
0.23467 0.142857 0
0.469339 0.142857 0
0.469339 0.0714286 0
0.704009 0.0714286 0
0.469339 0.142857 0
0.704009 0.142857 0
0.704009 0.0714286 0
0.938679 0.0714286 0
0.704009 0.142857 0
0.938679 0.142857 0
0.938679 0.0714286 0
1.17335 0.0714286 0
0.938679 0.142857 0
1.17335 0.142857 0
1.17335 0.0714286 0
1.40802 0.0714286 0
1.17335 0.142857 0
1.40802 0.142857 0
1.40802 0.0714286 0
1.64269 0.0714286 0
1.40802 0.142857 0
1.64269 0.142857 0
1.64269 0.0714286 0
1.87736 0.0714286 0
1.64269 0.142857 0
1.87736 0.142857 0
1.87736 0.0714286 0
2.11203 0.0714286 0
1.87736 0.142857 0
2.11203 0.142857 0
2.11203 0.0714286 0
2.3467 0.0714286 0
2.11203 0.142857 0
2.3467 0.142857 0
2.3467 0.0714286 0
2.58137 0.0714286 0
2.3467 0.142857 0
2.58137 0.142857 0
2.58137 0.0714286 0
2.81604 0.0714286 0
2.58137 0.142857 0
2.81604 0.142857 0
2.81604 0.0714286 0
3.05071 0.0714286 0
2.81604 0.142857 0
3.05071 0.142857 0
3.05071 0.0714286 0
3.28538 0.0714286 0
3.05071 0.142857 0
3.28538 0.142857 0
3.28538 0.0714286 0
3.52005 0.0714286 0
3.28538 0.142857 0
3.52005 0.142857 0
3.52005 0.0714286 0
3.75472 0.0714286 0
3.52005 0.142857 0
3.75472 0.142857 0
3.75472 0.0714286 0
3.98938 0.0714286 0
3.75472 0.142857 0
3.98938 0.142857 0
3.98938 0.0714286 0
4.22405 0.0714286 0
3.98938 0.142857 0
4.22405 0.142857 0
4.22405 0.0714286 0
4.45872 0.0714286 0
4.22405 0.142857 0
4.45872 0.142857 0
4.45872 0.0714286 0
4.69339 0.0714286 0
4.45872 0.142857 0
4.69339 0.142857 0
4.69339 0.0714286 0
4.92806 0.0714286 0
4.69339 0.142857 0
4.92806 0.142857 0
4.92806 0.0714286 0
5.16273 0.0714286 0
4.92806 0.142857 0
5.16273 0.142857 0
5.16273 0.0714286 0
5.3974 0.0714286 0
5.16273 0.142857 0
5.3974 0.142857 0
5.3974 0.0714286 0
5.63207 0.0714286 0
5.3974 0.142857 0
5.63207 0.142857 0
-5.63207 0.142857 0
-5.3974 0.142857 0
-5.63207 0.214286 0
-5.3974 0.214286 0
-5.3974 0.142857 0
-5.16273 0.142857 0
-5.3974 0.214286 0
-5.16273 0.214286 0
-5.16273 0.142857 0
-4.92806 0.142857 0
-5.16273 0.214286 0
-4.92806 0.214286 0
-4.92806 0.142857 0
-4.69339 0.142857 0
-4.92806 0.214286 0
-4.69339 0.214286 0
-4.69339 0.142857 0
-4.45872 0.142857 0
-4.69339 0.214286 0
-4.45872 0.214286 0
-4.45872 0.142857 0
-4.22405 0.142857 0
-4.45872 0.214286 0
-4.22405 0.214286 0
-4.22405 0.142857 0
-3.98938 0.142857 0
-4.22405 0.214286 0
-3.98938 0.214286 0
-3.98938 0.142857 0
-3.75472 0.142857 0
-3.98938 0.214286 0
-3.75472 0.214286 0
-3.75472 0.142857 0
-3.52005 0.142857 0
-3.75472 0.214286 0
-3.52005 0.214286 0
-3.52005 0.142857 0
-3.28538 0.142857 0
-3.52005 0.214286 0
-3.28538 0.214286 0
-3.28538 0.142857 0
-3.05071 0.142857 0
-3.28538 0.214286 0
-3.05071 0.214286 0
-3.05071 0.142857 0
-2.81604 0.142857 0
-3.05071 0.214286 0
-2.81604 0.214286 0
-2.81604 0.142857 0
-2.58137 0.142857 0
-2.81604 0.214286 0
-2.58137 0.214286 0
-2.58137 0.142857 0
-2.3467 0.142857 0
-2.58137 0.214286 0
-2.3467 0.214286 0
-2.3467 0.142857 0
-2.11203 0.142857 0
-2.3467 0.214286 0
-2.11203 0.214286 0
-2.11203 0.142857 0
-1.87736 0.142857 0
-2.11203 0.214286 0
-1.87736 0.214286 0
-1.87736 0.142857 0
-1.64269 0.142857 0
-1.87736 0.214286 0
-1.64269 0.214286 0
-1.64269 0.142857 0
-1.40802 0.142857 0
-1.64269 0.214286 0
-1.40802 0.214286 0
-1.40802 0.142857 0
-1.17335 0.142857 0
-1.40802 0.214286 0
-1.17335 0.214286 0
-1.17335 0.142857 0
-0.938679 0.142857 0
-1.17335 0.214286 0
-0.938679 0.214286 0
-0.938679 0.142857 0
-0.704009 0.142857 0
-0.938679 0.214286 0
-0.704009 0.214286 0
-0.704009 0.142857 0
-0.469339 0.142857 0
-0.704009 0.214286 0
-0.469339 0.214286 0
-0.469339 0.142857 0
-0.23467 0.142857 0
-0.469339 0.214286 0
-0.23467 0.214286 0
-0.23467 0.142857 0
0 0.142857 0
-0.23467 0.214286 0
0 0.214286 0
0 0.142857 0
0.23467 0.142857 0
0 0.214286 0
0.23467 0.214286 0
0.23467 0.142857 0
0.469339 0.142857 0
0.23467 0.214286 0
0.469339 0.214286 0
0.469339 0.142857 0
0.704009 0.142857 0
0.469339 0.214286 0
0.704009 0.214286 0
0.704009 0.142857 0
0.938679 0.142857 0
0.704009 0.214286 0
0.938679 0.214286 0
0.938679 0.142857 0
1.17335 0.142857 0
0.938679 0.214286 0
1.17335 0.214286 0
1.17335 0.142857 0
1.40802 0.142857 0
1.17335 0.214286 0
1.40802 0.214286 0
1.40802 0.142857 0
1.64269 0.142857 0
1.40802 0.214286 0
1.64269 0.214286 0
1.64269 0.142857 0
1.87736 0.142857 0
1.64269 0.214286 0
1.87736 0.214286 0
1.87736 0.142857 0
2.11203 0.142857 0
1.87736 0.214286 0
2.11203 0.214286 0
2.11203 0.142857 0
2.3467 0.142857 0
2.11203 0.214286 0
2.3467 0.214286 0
2.3467 0.142857 0
2.58137 0.142857 0
2.3467 0.214286 0
2.58137 0.214286 0
2.58137 0.142857 0
2.81604 0.142857 0
2.58137 0.214286 0
2.81604 0.214286 0
2.81604 0.142857 0
3.05071 0.142857 0
2.81604 0.214286 0
[...]
POINT_DATA 2688
SCALARS x1_displacement double 1
LOOKUP_TABLE default
1.74243e-16 -0.0296266 1.36579e-16 -0.0293236 -0.0296266 -0.0559619 -0.0293236 -0.0554818 -0.0559619 -0.0746513 -0.0554818 -0.0741885 -0.0746513 -0.0798117 -0.0741885 -0.0795155 -0.0798117 -0.0659054 -0.0795155 -0.0657769 -0.0659054 -0.0347123 -0.0657769 -0.034645 -0.0347123 -0.0015687 -0.034645 -0.00157859 -0.0015687 0.0173244 -0.00157859 0.0170889 0.0173244 0.0191031 0.0170889 0.0185938 0.0191031 0.00917244 0.0185938 0.00849454 0.00917244 -0.0061367 0.00849454 -0.00681512 -0.0061367 -0.0220521 -0.00681512 -0.0225988 -0.0220521 -0.0354849 -0.0225988 -0.0358416 -0.0354849 -0.0446603 -0.0358416 -0.0448313 -0.0446603 -0.0488175 -0.0448313 -0.0488419 -0.0488175 -0.048052 -0.0488419 -0.0479796 -0.048052 -0.0432081 -0.0479796 -0.0430856 -0.0432081 -0.0356896 -0.0430856 -0.0355539 -0.0356896 -0.0271225 -0.0355539 -0.026999 -0.0271225 -0.0189446 -0.026999 -0.0188473 -0.0189446 -0.0120876 -0.0188473 -0.0120207 -0.0120876 -0.00686287 -0.0120207 -0.00682345 -0.00686287 -0.00303629 -0.00682345 -0.00301866 -0.00303629 0 -0.00301866 0 0 0.00303629 0 0.00301866 0.00303629 0.00686287 0.00301866 0.00682345 0.00686287 0.0120876 0.00682345 0.0120207 0.0120876 0.0189446 0.0120207 0.0188473 0.0189446 0.0271225 0.0188473 0.026999 0.0271225 0.0356896 0.026999 0.0355539 0.0356896 0.0432081 0.0355539 0.0430856 0.0432081 0.048052 0.0430856 0.0479796 0.048052 0.0488175 0.0479796 0.0488419 0.0488175 0.0446603 0.0488419 0.0448313 0.0446603 0.0354849 0.0448313 0.0358416 0.0354849 0.0220521 0.0358416 0.0225988 0.0220521 0.0061367 0.0225988 0.00681512 0.0061367 -0.00917244 0.00681512 -0.00849454 -0.00917244 -0.0191031 -0.00849454 -0.0185938 -0.0191031 -0.0173244 -0.0185938 -0.0170889 -0.0173244 0.0015687 -0.0170889 0.00157859 0.0015687 0.0347123 0.00157859 0.034645 0.0347123 0.0659054 0.034645 0.0657769 0.0659054 0.0798117 0.0657769 0.0795155 0.0798117 0.0746513 0.0795155 0.0741885 0.0746513 0.0559619 0.0741885 0.0554818 0.0559619 0.0296266 0.0554818 0.0293236 0.0296266 1.74243e-16 0.0293236 1.36579e-16 1.36579e-16 -0.0293236 1.01802e-16 -0.0283719 -0.0293236 -0.0554818 -0.0283719 -0.0539591 -0.0554818 -0.0741885 -0.0539591 -0.0727103 -0.0741885 -0.0795155 -0.0727103 -0.0785954 -0.0795155 -0.0657769 -0.0785954 -0.0654332 -0.0657769 -0.034645 -0.0654332 -0.0344615 -0.034645 -0.00157859 -0.0344615 -0.00158069 -0.00157859 0.0170889 -0.00158069 0.0163825 0.0170889 0.0185938 0.0163825 0.0170528 0.0185938 0.00849454 0.0170528 0.00649048 0.00849454 -0.00681512 0.00649048 -0.00876418 -0.00681512 -0.0225988 -0.00876418 -0.0241229 -0.0225988 -0.0358416 -0.0241229 -0.0368003 -0.0358416 -0.0448313 -0.0368003 -0.0452598 -0.0448313 -0.0488419 -0.0452598 -0.048865 -0.0488419 -0.0479796 -0.048865 -0.047744 -0.0479796 -0.0430856 -0.047744 -0.0427225 -0.0430856 -0.0355539 -0.0427225 -0.0351646 -0.0355539 -0.026999 -0.0351646 -0.0266522 -0.026999 -0.0188473 -0.0266522 -0.01858 -0.0188473 -0.0120207 -0.01858 -0.0118415 -0.0120207 -0.00682345 -0.0118415 -0.00672104 -0.00682345 -0.00301866 -0.00672104 -0.00297421 -0.00301866 0 -0.00297421 0 0 0.00301866 0 0.00297421 0.00301866 0.00682345 0.00297421 0.00672104 0.00682345 0.0120207 0.00672104 0.0118415 0.0120207 0.0188473 0.0118415 0.01858 0.0188473 0.026999 0.01858 0.0266522 0.026999 0.0355539 0.0266522 0.0351646 0.0355539 0.0430856 0.0351646 0.0427225 0.0430856 0.0479796 0.0427225 0.047744 0.0479796 0.0488419 0.047744 0.048865 0.0488419 0.0448313 0.048865 0.0452598 0.0448313 0.0358416 0.0452598 0.0368003 0.0358416 0.0225988 0.0368003 0.0241229 0.0225988 0.00681512 0.0241229 0.00876418 0.00681512 -0.00849454 0.00876418 -0.00649048 -0.00849454 -0.0185938 -0.00649048 -0.0170528 -0.0185938 -0.0170889 -0.0170528 -0.0163825 -0.0170889 0.00157859 -0.0163825 0.00158069 0.00157859 0.034645 0.00158069 0.0344615 0.034645 0.0657769 0.0344615 0.0654332 0.0657769 0.0795155 0.0654332 0.0785954 0.0795155 0.0741885 0.0785954 0.0727103 0.0741885 0.0554818 0.0727103 0.0539591 0.0554818 0.0293236 0.0539591 0.0283719 0.0293236 1.36579e-16 0.0283719 1.01802e-16 1.01802e-16 -0.0283719 8.22131e-17 -0.0267512 -0.0283719 -0.0539591 -0.0267512 -0.0513493 -0.0539591 -0.0727103 -0.0513493 -0.0701669 -0.0727103 -0.0785954 -0.0701669 -0.0770412 -0.0785954 -0.0654332 -0.0770412 -0.064913 -0.0654332 -0.0344615 -0.064913 -0.0341783 -0.0344615 -0.00158069 -0.0341783 -0.00155541 -0.00158069 0.0163825 -0.00155541 0.01521 0.0163825 0.0170528 0.01521 0.0144916 0.0170528 0.00649048 0.0144916 0.00322251 0.00649048 -0.00876418 0.00322251 -0.0118677 -0.00876418 -0.0241229 -0.0118677 -0.0264888 -0.0241229 -0.0368003 -0.0264888 -0.0382432 -0.0368003 -0.0452598 -0.0382432 -0.0458664 -0.0452598 -0.048865 -0.0458664 -0.0488481 -0.048865 -0.047744 -0.0488481 -0.0473391 -0.047744 -0.0427225 -0.0473391 -0.0421338 -0.0427225 -0.0351646 -0.0421338 -0.0345475 -0.0351646 -0.0266522 -0.0345475 -0.026111 -0.0266522 -0.01858 -0.026111 -0.0181696 -0.01858 -0.0118415 -0.0181696 -0.0115724 -0.0118415 -0.00672104 -0.0115724 -0.00657159 -0.00672104 -0.00297421 -0.00657159 -0.00291119 -0.00297421 0 -0.00291119 0 0 0.00297421 0 0.00291119 0.00297421 0.00672104 0.00291119 0.00657159 0.00672104 0.0118415 0.00657159 0.0115724 0.0118415 0.01858 0.0115724 0.0181696 0.01858 0.0266522 0.0181696 0.026111 0.0266522 0.0351646 0.026111 0.0345475 0.0351646 0.0427225 0.0345475 0.0421338 0.0427225 0.047744 0.0421338 0.0473391 0.047744 0.048865 0.0473391 0.0488481 0.048865 0.0452598 0.0488481 0.0458664 0.0452598 0.0368003 0.0458664 0.0382432 0.0368003 0.0241229 0.0382432 0.0264888 0.0241229 0.00876418 0.0264888 0.0118677 0.00876418 -0.00649048 0.0118677 -0.00322251 -0.00649048 -0.0170528 -0.00322251 -0.0144916 -0.0170528 -0.0163825 -0.0144916 -0.01521 -0.0163825 0.00158069 -0.01521 0.00155541 0.00158069 0.0344615 0.00155541 0.0341783 0.0344615 0.0654332 0.0341783 0.064913 0.0654332 0.0785954 0.064913 0.0770412 0.0785954 0.0727103 0.0770412 0.0701669 0.0727103 0.0539591 0.0701669 0.0513493 0.0539591 0.0283719 0.0513493 0.0267512 0.0283719 1.01802e-16 0.0267512 8.22131e-17 8.22131e-17 -0.0267512 7.24955e-17 -0.0244012 -0.0267512 -0.0513493 -0.0244012 -0.0475167 -0.0513493 -0.0701669 -0.0475167 -0.0663689 -0.0701669 -0.0770412 -0.0663689 -0.0746995 -0.0770412 -0.064913 -0.0746995 -0.0641737 -0.064913 -0.0341783 -0.0641737 -0.0338036 -0.0341783 -0.00155541 -0.0338036 -0.00154446 -0.00155541 0.01521 -0.00154446 0.0134536 0.01521 0.0144916 0.0134536 0.0107976 0.0144916 0.00322251 0.0107976 -0.00132684 0.00322251 -0.0118677 -0.00132684 -0.0160414 -0.0118677 -0.0264888 -0.0160414 -0.0295596 -0.0264888 -0.0382432 -0.0295596 -0.0400326 -0.0382432 -0.0458664 -0.0400326 -0.0465423 -0.0458664 -0.0488481 -0.0465423 -0.048721 -0.0488481 -0.0473391 -0.048721 -0.0467308 -0.0473391 -0.0421338 -0.0467308 -0.0413147 -0.0421338 -0.0345475 -0.0413147 -0.0337182 -0.0345475 -0.026111 -0.0337182 -0.0254031 -0.026111 -0.0181696 -0.0254031 -0.0176489 -0.0181696 -0.0115724 -0.0176489 -0.0112444 -0.0115724 -0.00657159 -0.0112444 -0.00639912 -0.00657159 -0.00291119 -0.00639912 -0.00284264 -0.00291119 0 -0.00284264 0 0 0.00291119 0 0.00284264 0.00291119 0.00657159 0.00284264 0.00639912 0.00657159 0.0115724 0.00639912 0.0112444 0.0115724 0.0181696 0.0112444 0.0176489 0.0181696 0.026111 0.0176489 0.0254031 0.026111 0.0345475 0.0254031 0.0337182 0.0345475 0.0421338 0.0337182 0.0413147 0.0421338 0.0473391 0.0413147 0.0467308 0.0473391 0.0488481 0.0467308 0.048721 0.0488481 0.0458664 0.048721 0.0465423 0.0458664 0.0382432 0.0465423 0.0400326 0.0382432 0.0264888 0.0400326 0.0295596 0.0264888 0.0118677 0.0295596 0.0160414 0.0118677 -0.00322251 0.0160414 0.00132684 -0.00322251 -0.0144916 0.00132684 -0.0107976 -0.0144916 -0.01521 -0.0107976 -0.0134536 -0.01521 0.00155541 -0.0134536 0.00154446 0.00155541 0.0341783 0.00154446 0.0338036 0.0341783 0.064913 0.0338036 0.0641737 0.064913 0.0770412 0.0641737 0.0746995 0.0770412 0.0701669 0.0746995 0.0663689 0.0701669 0.0513493 0.0663689 0.0475167 0.0513493 0.0267512 0.0475167 0.0244012 0.0267512 8.22131e-17 0.0244012 7.24955e-17 7.24955e-17 -0.0244012 6.54376e-17 -0.0212409 -0.0244012 -0.0475167 -0.0212409 -0.0422598 -0.0475167 -0.0663689 -0.0422598 -0.0610034 -0.0663689 -0.0746995 -0.0610034 -0.0712814 -0.0746995 -0.0641737 -0.0712814 -0.0630997 -0.0641737 -0.0338036 -0.0630997 -0.0333393 -0.0338036 -0.00154446 -0.0333393 -0.00164696 -0.00154446 0.0134536 -0.00164696 0.0108749 0.0134536 0.0107976 0.0108749 0.00574512 0.0107976 -0.00132684 0.00574512 -0.0072356 -0.00132684 -0.0160414 -0.0072356 -0.0212156 -0.0160414 -0.0295596 -0.0212156 -0.0331896 -0.0295596 -0.0400326 -0.0331896 -0.0420116 -0.0400326 -0.0465423 -0.0420116 -0.0471544 -0.0465423 -0.048721 -0.0471544 -0.0483883 -0.048721 -0.0467308 -0.0483883 -0.0458634 -0.0467308 -0.0413147 -0.0458634 -0.0402446 -0.0413147 -0.0337182 -0.0402446 -0.0326844 -0.0337182 -0.0254031 -0.0326844 -0.0245562 -0.0254031 -0.0176489 -0.0245562 -0.0170559 -0.0176489 -0.0112444 -0.0170559 -0.0108965 -0.0112444 -0.00639912 -0.0108965 -0.00623478 -0.00639912 -0.00284264 -0.00623478 -0.00278576 -0.00284264 0 -0.00278576 0 0 0.00284264 0 0.00278576 0.00284264 0.00639912 0.00278576 0.00623478 0.00639912 0.0112444 0.00623478 0.0108965 0.0112444 0.0176489 0.0108965 0.0170559 0.0176489 0.0254031 0.0170559 0.0245562 0.0254031 0.0337182 0.0245562 0.0326844 0.0337182 0.0413147 0.0326844 0.0402446 0.0413147 0.0467308 0.0402446 0.0458634 0.0467308 0.048721 0.0458634 0.0483883 0.048721 0.0465423 0.0483883 0.0471544 0.0465423 0.0400326 0.0471544 0.0420116 0.0400326 0.0295596 0.0420116 0.0331896 0.0295596 0.0160414 0.0331896 0.0212156 0.0160414 0.00132684 0.0212156 0.0072356 0.00132684 -0.0107976 0.0072356 -0.00574512 -0.0107976 -0.0134536 -0.00574512 -0.0108749 -0.0134536 0.00154446 -0.0108749 0.00164696 0.00154446 0.0338036 0.00164696 0.0333393 0.0338036 0.0641737 0.0333393 0.0630997 0.0641737 0.0746995 0.0630997 0.0712814 0.0746995 0.0663689 0.0712814 0.0610034 0.0663689 0.0475167 0.0610034 0.0422598 0.0475167 0.0244012 0.0422598 0.0212409 0.0244012 7.24955e-17 0.0212409 6.54376e-17 6.54376e-17 -0.0212409 6.20995e-17 -0.0171931 -0.0212409 -0.0422598 -0.0171931 -0.0353458 -0.0422598 -0.0610034 -0.0353458 -0.0536508 -0.0610034 -0.0712814 -0.0536508 -0.0663506 -0.0712814 -0.0630997 -0.0663506 -0.0614936 -0.0630997 -0.0333393 -0.0614936 -0.0327842 -0.0333393 -0.00164696 -0.0327842 -0.00203152 -0.00164696 0.0108749 -0.00203152 0.00709965 0.0108749 0.00574512 0.00709965 -0.000996385 0.00574512 -0.0072356 -0.000996385 -0.014616 -0.0072356 -0.0212156 -0.014616 -0.0273135 -0.0212156 -0.0331896 -0.0273135 -0.0372149 -0.0331896 -0.0420116 -0.0372149 -0.044003 -0.0420116 -0.0471544 -0.044003 -0.0475487 -0.0471544 -0.0483883 -0.0475487 -0.0477336 -0.0483883 -0.0458634 -0.0477336 -0.0446633 -0.0458634 -0.0402446 -0.0446633 -0.0388914 -0.0402446 -0.0326844 -0.0388914 -0.0314496 -0.0326844 -0.0245562 -0.0314496 -0.0236 -0.0245562 -0.0170559 -0.0236 -0.016435 -0.0170559 -0.0108965 -0.016435 -0.0105756 -0.0108965 -0.00623478 -0.0105756 -0.00611666 -0.00623478 -0.00278576 -0.00611666 -0.00276166 -0.00278576 0 -0.00276166 0 0 0.00278576 0 0.00276166 0.00278576 0.00623478 0.00276166 0.00611666 0.00623478 0.0108965 0.00611666 0.0105756 0.0108965 0.0170559 0.0105756 0.016435 0.0170559 0.0245562 0.016435 0.0236 0.0245562 0.0326844 0.0236 0.0314496 0.0326844 0.0402446 0.0314496 0.0388914 0.0402446 0.0458634 0.0388914 0.0446633 0.0458634 0.0483883 0.0446633 0.0477336 0.0483883 0.0471544 0.0477336 0.0475487 0.0471544 0.0420116 0.0475487 0.044003 0.0420116 0.0331896 0.044003 0.0372149 0.0331896 0.0212156 0.0372149 0.0273135 0.0212156 0.0072356 0.0273135 0.014616 0.0072356 -0.00574512 0.014616 0.000996385 -0.00574512 -0.0108749 0.000996385 -0.00709965 -0.0108749 0.00164696 -0.00709965 0.00203152 0.00164696 0.0333393 0.00203152 0.0327842 0.0333393 0.0630997 0.0327842 0.0614936 0.0630997 0.0712814 0.0614936 0.0663506 0.0712814 0.0610034 0.0663506 0.0536508 0.0610034 0.0422598 0.0536508 0.0353458 0.0422598 0.0212409 0.0353458 0.0171931 0.0212409 6.54376e-17 0.0171931 6.20995e-17 6.20995e-17 -0.0171931 5.66713e-17 -0.0122122 -0.0171931 -0.0353458 -0.0122122 -0.0265549 -0.0353458 -0.0536508 -0.0265549 -0.0438043 -0.0536508 -0.0663506 -0.0438043 -0.0592956 -0.0663506 -0.0614936 -0.0592956 -0.0590461 -0.0614936 -0.0327842 -0.0590461 -0.0321353 -0.0327842 -0.00203152 -0.0321353 -0.00296711 -0.00203152 0.00709965 -0.00296711 0.00158373 0.00709965 -0.000996385 0.00158373 -0.00985261 -0.000996385 -0.014616 -0.00985261 -0.0235797 -0.014616 -0.0273135 -0.0235797 -0.0342264 -0.0273135 -0.0372149 -0.0342264 -0.0414454 -0.0372149 -0.044003 -0.0414454 -0.04581 -0.044003 -0.0475487 -0.04581 -0.0475521 -0.0475487 -0.0477336 -0.0475521 -0.0466224 -0.0477336 -0.0446633 -0.0466224 -0.0430417 -0.0446633 -0.0388914 -0.0430417 -0.0372137 -0.0388914 -0.0314496 -0.0372137 -0.0300148 -0.0314496 -0.0236 -0.0300148 -0.0225683 -0.0236 -0.016435 -0.0225683 -0.015839 -0.016435 -0.0105756 -0.015839 -0.0103374 -0.0105756 -0.00611666 -0.0103374 -0.00608991 -0.00611666 -0.00276166 -0.00608991 -0.00279526 -0.00276166 0 -0.00279526 0 0 0.00276166 0 0.00279526 0.00276166 0.00611666 0.00279526 0.00608991 0.00611666 0.0105756 0.00608991 0.0103374 0.0105756 0.016435 0.0103374 0.015839 0.016435 0.0236 0.015839 0.0225683 0.0236 0.0314496 0.0225683 0.0300148 0.0314496 0.0388914 0.0300148 0.0372137 0.0388914 0.0446633 0.0372137 0.0430417 0.0446633 0.0477336 0.0430417 0.0466224 0.0477336 0.0475487 0.0466224 0.0475521 0.0475487 0.044003 0.0475521 0.04581 0.044003 0.0372149 0.04581 0.0414454 0.0372149 0.0273135 0.0414454 0.0342264 0.0273135 0.014616 0.0342264 0.0235797 0.014616 0.000996385 0.0235797 0.00985261 0.000996385 -0.00709965 0.00985261 -0.00158373 -0.00709965 0.00203152 -0.00158373 0.00296711 0.00203152 0.0327842 0.00296711 0.0321353 0.0327842 0.0614936 0.0321353 0.0590461 0.0614936 0.0663506 0.0590461 0.0592956 0.0663506 0.0536508 0.0592956 0.0438043 0.0536508 0.0353458 0.0438043 0.0265549 0.0353458 0.0171931 0.0265549 0.0122122 0.0171931 6.20995e-17 0.0122122 5.66713e-17 5.66713e-17 -0.0122122 5.56686e-17 -0.00631155 -0.0122122 -0.0265549 -0.00631155 -0.01574 -0.0265549 -0.0438043 -0.01574 -0.0309095 -0.0438043 -0.0592956 -0.0309095 -0.0492848 -0.0592956 -0.0590461 -0.0492848 -0.0552775 -0.0590461 -0.0321353 -0.0552775 -0.0313888 -0.0321353 -0.00296711 -0.0313888 -0.00488128 -0.00296711 0.00158373 -0.00488128 -0.00643879 0.00158373 -0.00985261 -0.00643879 -0.0213187 -0.00985261 -0.0235797 -0.0213187 -0.0341857 -0.0235797 -0.0342264 -0.0341857 -0.0417891 -0.0342264 -0.0414454 -0.0417891 -0.0456603 -0.0414454 -0.04581 -0.0456603 -0.0472168 -0.04581 -0.0475521 -0.0472168 -0.0469747 -0.0475521 -0.0466224 -0.0469747 -0.044904 -0.0466224 -0.0430417 -0.044904 -0.0408969 -0.0430417 -0.0372137 -0.0408969 -0.0351627 -0.0372137 -0.0300148 -0.0351627 -0.0283817 -0.0300148 -0.0225683 -0.0283817 -0.0215019 -0.0225683 -0.015839 -0.0215019 -0.0153307 -0.015839 -0.0103374 -0.0153307 -0.0102478 -0.0103374 -0.00608991 -0.0102478 -0.00620725 -0.00608991 -0.00279526 -0.00620725 -0.00291538 -0.00279526 0 -0.00291538 0 0 0.00279526 0 0.00291538 0.00279526 0.00608991 0.00291538 0.00620725 0.00608991 0.0103374 0.00620725 0.0102478 0.0103374 0.015839 0.0102478 0.0153307 0.015839 0.0225683 0.0153307 0.0215019 0.0225683 0.0300148 0.0215019 0.0283817 0.0300148 0.0372137 0.0283817 0.0351627 0.0372137 0.0430417 0.0351627 0.0408969 0.0430417 0.0466224 0.0408969 0.044904 0.0466224 0.0475521 0.044904 0.0469747 0.0475521 0.04581 0.0469747 0.0472168 0.04581 0.0414454 0.0472168 0.0456603 0.0414454 0.0342264 0.0456603 0.0417891 0.0342264 0.0235797 0.0417891 0.0341857 0.0235797 0.00985261 0.0341857 0.0213187 0.00985261 -0.00158373 0.0213187 0.00643879 -0.00158373 0.00296711 0.00643879 0.00488128 0.00296711 0.0321353 0.00488128 0.0313888 0.0321353 0.0590461 0.0313888 0.0552775 0.0590461 0.0592956 0.0552775 0.0492848 0.0592956 0.0438043 0.0492848 0.0309095 0.0438043 0.0265549 0.0309095 0.01574 0.0265549 0.0122122 0.01574 0.00631155 0.0122122 5.66713e-17 0.00631155 5.56686e-17 5.56686e-17 -0.00631155 5.11293e-17 0.000420331 -0.00631155 -0.01574 0.000420331 -0.00290025 -0.01574 -0.0309095 -0.00290025 -0.0144433 -0.0309095 -0.0492848 -0.0144433 -0.0352115 -0.0492848 -0.0552775 -0.0352115 -0.0494327 -0.0552775 -0.0313888 -0.0494327 -0.0305393 -0.0313888 -0.00488128 -0.0305393 -0.00846445 -0.00488128 -0.00643879 -0.00846445 -0.018026 -0.00643879 -0.0213187 -0.018026 -0.035897 -0.0213187 -0.0341857 -0.035897 -0.0463724 -0.0341857 -0.0417891 -0.0463724 -0.0497623 -0.0417891 -0.0456603 -0.0497623 -0.0496105 -0.0456603 -0.0472168 -0.0496105 -0.0479915 -0.0472168 -0.0469747 -0.0479915 -0.0456111 -0.0469747 -0.044904 -0.0456111 -0.0424118 -0.044904 -0.0408969 -0.0424118 -0.0381139 -0.0408969 -0.0351627 -0.0381139 -0.0326843 -0.0351627 -0.0283817 -0.0326843 -0.0265554 -0.0283817 -0.0215019 -0.0265554 -0.0204524 -0.0215019 -0.0153307 -0.0204524 -0.0149866 -0.0153307 -0.0102478 -0.0149866 -0.010385 -0.0102478 -0.00620725 -0.010385 -0.00652951 -0.00620725 -0.00291538 -0.00652951 -0.00315467 -0.00291538 0 -0.00315467 0 0 0.00291538 0 0.00315467 0.00291538 0.00620725 0.00315467 0.00652951 0.00620725 0.0102478 0.00652951 0.010385 0.0102478 0.0153307 0.010385 0.0149866 0.0153307 0.0215019 0.0149866 0.0204524 0.0215019 0.0283817 0.0204524 0.0265554 0.0283817 0.0351627 0.0265554 0.0326843 0.0351627 0.0408969 0.0326843 0.0381139 0.0408969 0.044904 0.0381139 0.0424118 0.044904 0.0469747 0.0424118 0.0456111 0.0469747 0.0472168 0.0456111 0.0479915 0.0472168 0.0456603 0.0479915 0.0496105 0.0456603 0.0417891 0.0496105 0.0497623 0.0417891 0.0341857 0.0497623 0.0463724 0.0341857 0.0213187 0.0463724 0.035897 0.0213187 0.00643879 0.035897 0.018026 0.00643879 0.00488128 0.018026 0.00846445 0.00488128 0.0313888 0.00846445 0.0305393 0.0313888 0.0552775 0.0305393 0.0494327 0.0552775 0.0492848 0.0494327 0.0352115 0.0492848 0.0309095 0.0352115 0.0144433 0.0309095 0.01574 0.0144433 0.00290025 0.01574 0.00631155 0.00290025 -0.000420331 0.00631155 5.56686e-17 -0.000420331 5.11293e-17 5.11293e-17 0.000420331 4.92777e-17 0.00782867 0.000420331 -0.00290025 0.00782867 0.0117456 -0.00290025 -0.0144433 0.0117456 0.00592759 -0.0144433 -0.0352115 0.00592759 -0.015643 -0.0352115 -0.0494327 -0.015643 -0.0402917 -0.0494327 -0.0305393 -0.0402917 -0.0295756 -0.0305393 -0.00846445 -0.0295756 -0.0148597 -0.00846445 -0.018026 -0.0148597 -0.0346063 -0.018026 -0.035897 -0.0346063 -0.0539539 -0.035897 -0.0463724 -0.0539539 -0.0598777 -0.0463724 -0.0497623 -0.0598777 -0.0578373 -0.0497623 -0.0496105 -0.0578373 -0.0530266 -0.0496105 -0.0479915 -0.0530266 -0.0478894 -0.0479915 -0.0456111 -0.0478894 -0.0432428 -0.0456111 -0.0424118 -0.0432428 -0.0389631 -0.0424118 -0.0381139 -0.0389631 -0.0345638 -0.0381139 -0.0326843 -0.0345638 -0.0297183 -0.0326843 -0.0265554 -0.0297183 -0.0245465 -0.0265554 -0.0204524 -0.0245465 -0.0194858 -0.0204524 -0.0149866 -0.0194858 -0.0149001 -0.0149866 -0.010385 -0.0149001 -0.0108408 -0.010385 -0.00652951 -0.0108408 -0.0071261 -0.00652951 -0.00315467 -0.0071261 -0.00354957 -0.00315467 0 -0.00354957 0 0 0.00315467 0 0.00354957 0.00315467 0.00652951 0.00354957 0.0071261 0.00652951 0.010385 0.0071261 0.0108408 0.010385 0.0149866 0.0108408 0.0149001 0.0149866 0.0204524 0.0149001 0.0194858 0.0204524 0.0265554 0.0194858 0.0245465 0.0265554 0.0326843 0.0245465 0.0297183 0.0326843 0.0381139 0.0297183 0.0345638 0.0381139 0.0424118 0.0345638 0.0389631 0.0424118 0.0456111 0.0389631 0.0432428 0.0456111 0.0479915 0.0432428 0.0478894 0.0479915 0.0496105 0.0478894 0.0530266 0.0496105 0.0497623 0.0530266 0.0578373 0.0497623 0.0463724 0.0578373 0.0598777 0.0463724 0.035897 0.0598777 0.0539539 0.035897 0.018026 0.0539539 0.0346063 0.018026 0.00846445 0.0346063 0.0148597 0.00846445 0.0305393 0.0148597 0.0295756 0.0305393 0.0494327 0.0295756 0.0402917 0.0494327 0.0352115 0.0402917 0.015643 0.0352115 0.0144433 0.015643 -0.00592759 0.0144433 0.00290025 -0.005927