# vtk DataFile Version 3.0
#This file was generated by the deal.II library on 2017/9/27 at 13:18:00
ASCII
DATASET UNSTRUCTURED_GRID

POINTS 2688 double
-5.63207 0 0
-5.3974 0 0
-5.63207 0.0714286 0
-5.3974 0.0714286 0
-5.3974 0 0
-5.16273 0 0
-5.3974 0.0714286 0
-5.16273 0.0714286 0
-5.16273 0 0
-4.92806 0 0
-5.16273 0.0714286 0
-4.92806 0.0714286 0
-4.92806 0 0
-4.69339 0 0
-4.92806 0.0714286 0
-4.69339 0.0714286 0
-4.69339 0 0
-4.45872 0 0
-4.69339 0.0714286 0
-4.45872 0.0714286 0
-4.45872 0 0
-4.22405 0 0
-4.45872 0.0714286 0
-4.22405 0.0714286 0
-4.22405 0 0
-3.98938 0 0
-4.22405 0.0714286 0
-3.98938 0.0714286 0
-3.98938 0 0
-3.75472 0 0
-3.98938 0.0714286 0
-3.75472 0.0714286 0
-3.75472 0 0
-3.52005 0 0
-3.75472 0.0714286 0
-3.52005 0.0714286 0
-3.52005 0 0
-3.28538 0 0
-3.52005 0.0714286 0
-3.28538 0.0714286 0
-3.28538 0 0
-3.05071 0 0
-3.28538 0.0714286 0
-3.05071 0.0714286 0
-3.05071 0 0
-2.81604 0 0
-3.05071 0.0714286 0
-2.81604 0.0714286 0
-2.81604 0 0
-2.58137 0 0
-2.81604 0.0714286 0
-2.58137 0.0714286 0
-2.58137 0 0
-2.3467 0 0
-2.58137 0.0714286 0
-2.3467 0.0714286 0
-2.3467 0 0
-2.11203 0 0
-2.3467 0.0714286 0
-2.11203 0.0714286 0
-2.11203 0 0
-1.87736 0 0
-2.11203 0.0714286 0
-1.87736 0.0714286 0
-1.87736 0 0
-1.64269 0 0
-1.87736 0.0714286 0
-1.64269 0.0714286 0
-1.64269 0 0
-1.40802 0 0
-1.64269 0.0714286 0
-1.40802 0.0714286 0
-1.40802 0 0
-1.17335 0 0
-1.40802 0.0714286 0
-1.17335 0.0714286 0
-1.17335 0 0
-0.938679 0 0
-1.17335 0.0714286 0
-0.938679 0.0714286 0
-0.938679 0 0
-0.704009 0 0
-0.938679 0.0714286 0
-0.704009 0.0714286 0
-0.704009 0 0
-0.469339 0 0
-0.704009 0.0714286 0
-0.469339 0.0714286 0
-0.469339 0 0
-0.23467 0 0
-0.469339 0.0714286 0
-0.23467 0.0714286 0
-0.23467 0 0
0 0 0
-0.23467 0.0714286 0
0 0.0714286 0
0 0 0
0.23467 0 0
0 0.0714286 0
0.23467 0.0714286 0
0.23467 0 0
0.469339 0 0
0.23467 0.0714286 0
0.469339 0.0714286 0
0.469339 0 0
0.704009 0 0
0.469339 0.0714286 0
0.704009 0.0714286 0
0.704009 0 0
0.938679 0 0
0.704009 0.0714286 0
0.938679 0.0714286 0
0.938679 0 0
1.17335 0 0
0.938679 0.0714286 0
1.17335 0.0714286 0
1.17335 0 0
1.40802 0 0
1.17335 0.0714286 0
1.40802 0.0714286 0
1.40802 0 0
1.64269 0 0
1.40802 0.0714286 0
1.64269 0.0714286 0
1.64269 0 0
1.87736 0 0
1.64269 0.0714286 0
1.87736 0.0714286 0
1.87736 0 0
2.11203 0 0
1.87736 0.0714286 0
2.11203 0.0714286 0
2.11203 0 0
2.3467 0 0
2.11203 0.0714286 0
2.3467 0.0714286 0
2.3467 0 0
2.58137 0 0
2.3467 0.0714286 0
2.58137 0.0714286 0
2.58137 0 0
2.81604 0 0
2.58137 0.0714286 0
2.81604 0.0714286 0
2.81604 0 0
3.05071 0 0
2.81604 0.0714286 0
3.05071 0.0714286 0
3.05071 0 0
3.28538 0 0
3.05071 0.0714286 0
3.28538 0.0714286 0
3.28538 0 0
3.52005 0 0
3.28538 0.0714286 0
3.52005 0.0714286 0
3.52005 0 0
3.75472 0 0
3.52005 0.0714286 0
3.75472 0.0714286 0
3.75472 0 0
3.98938 0 0
3.75472 0.0714286 0
3.98938 0.0714286 0
3.98938 0 0
4.22405 0 0
3.98938 0.0714286 0
4.22405 0.0714286 0
4.22405 0 0
4.45872 0 0
4.22405 0.0714286 0
4.45872 0.0714286 0
4.45872 0 0
4.69339 0 0
4.45872 0.0714286 0
4.69339 0.0714286 0
4.69339 0 0
4.92806 0 0
4.69339 0.0714286 0
4.92806 0.0714286 0
4.92806 0 0
5.16273 0 0
4.92806 0.0714286 0
5.16273 0.0714286 0
5.16273 0 0
5.3974 0 0
5.16273 0.0714286 0
5.3974 0.0714286 0
5.3974 0 0
5.63207 0 0
5.3974 0.0714286 0
5.63207 0.0714286 0
-5.63207 0.0714286 0
-5.3974 0.0714286 0
-5.63207 0.142857 0
-5.3974 0.142857 0
-5.3974 0.0714286 0
-5.16273 0.0714286 0
-5.3974 0.142857 0
-5.16273 0.142857 0
-5.16273 0.0714286 0
-4.92806 0.0714286 0
-5.16273 0.142857 0
-4.92806 0.142857 0
-4.92806 0.0714286 0
-4.69339 0.0714286 0
-4.92806 0.142857 0
-4.69339 0.142857 0
-4.69339 0.0714286 0
-4.45872 0.0714286 0
-4.69339 0.142857 0
-4.45872 0.142857 0
-4.45872 0.0714286 0
-4.22405 0.0714286 0
-4.45872 0.142857 0
-4.22405 0.142857 0
-4.22405 0.0714286 0
-3.98938 0.0714286 0
-4.22405 0.142857 0
-3.98938 0.142857 0
-3.98938 0.0714286 0
-3.75472 0.0714286 0
-3.98938 0.142857 0
-3.75472 0.142857 0
-3.75472 0.0714286 0
-3.52005 0.0714286 0
-3.75472 0.142857 0
-3.52005 0.142857 0
-3.52005 0.0714286 0
-3.28538 0.0714286 0
-3.52005 0.142857 0
-3.28538 0.142857 0
-3.28538 0.0714286 0
-3.05071 0.0714286 0
-3.28538 0.142857 0
-3.05071 0.142857 0
-3.05071 0.0714286 0
-2.81604 0.0714286 0
-3.05071 0.142857 0
-2.81604 0.142857 0
-2.81604 0.0714286 0
-2.58137 0.0714286 0
-2.81604 0.142857 0
-2.58137 0.142857 0
-2.58137 0.0714286 0
-2.3467 0.0714286 0
-2.58137 0.142857 0
-2.3467 0.142857 0
-2.3467 0.0714286 0
-2.11203 0.0714286 0
-2.3467 0.142857 0
-2.11203 0.142857 0
-2.11203 0.0714286 0
-1.87736 0.0714286 0
-2.11203 0.142857 0
-1.87736 0.142857 0
-1.87736 0.0714286 0
-1.64269 0.0714286 0
-1.87736 0.142857 0
-1.64269 0.142857 0
-1.64269 0.0714286 0
-1.40802 0.0714286 0
-1.64269 0.142857 0
-1.40802 0.142857 0
-1.40802 0.0714286 0
-1.17335 0.0714286 0
-1.40802 0.142857 0
-1.17335 0.142857 0
-1.17335 0.0714286 0
-0.938679 0.0714286 0
-1.17335 0.142857 0
-0.938679 0.142857 0
-0.938679 0.0714286 0
-0.704009 0.0714286 0
-0.938679 0.142857 0
-0.704009 0.142857 0
-0.704009 0.0714286 0
-0.469339 0.0714286 0
-0.704009 0.142857 0
-0.469339 0.142857 0
-0.469339 0.0714286 0
-0.23467 0.0714286 0
-0.469339 0.142857 0
-0.23467 0.142857 0
-0.23467 0.0714286 0
0 0.0714286 0
-0.23467 0.142857 0
0 0.142857 0
0 0.0714286 0
0.23467 0.0714286 0
0 0.142857 0
0.23467 0.142857 0
0.23467 0.0714286 0
0.469339 0.0714286 0
0.23467 0.142857 0
0.469339 0.142857 0
0.469339 0.0714286 0
0.704009 0.0714286 0
0.469339 0.142857 0
0.704009 0.142857 0
0.704009 0.0714286 0
0.938679 0.0714286 0
0.704009 0.142857 0
0.938679 0.142857 0
0.938679 0.0714286 0
1.17335 0.0714286 0
0.938679 0.142857 0
1.17335 0.142857 0
1.17335 0.0714286 0
1.40802 0.0714286 0
1.17335 0.142857 0
1.40802 0.142857 0
1.40802 0.0714286 0
1.64269 0.0714286 0
1.40802 0.142857 0
1.64269 0.142857 0
1.64269 0.0714286 0
1.87736 0.0714286 0
1.64269 0.142857 0
1.87736 0.142857 0
1.87736 0.0714286 0
2.11203 0.0714286 0
1.87736 0.142857 0
2.11203 0.142857 0
2.11203 0.0714286 0
2.3467 0.0714286 0
2.11203 0.142857 0
2.3467 0.142857 0
2.3467 0.0714286 0
2.58137 0.0714286 0
2.3467 0.142857 0
2.58137 0.142857 0
2.58137 0.0714286 0
2.81604 0.0714286 0
2.58137 0.142857 0
2.81604 0.142857 0
2.81604 0.0714286 0
3.05071 0.0714286 0
2.81604 0.142857 0
3.05071 0.142857 0
3.05071 0.0714286 0
3.28538 0.0714286 0
3.05071 0.142857 0
3.28538 0.142857 0
3.28538 0.0714286 0
3.52005 0.0714286 0
3.28538 0.142857 0
3.52005 0.142857 0
3.52005 0.0714286 0
3.75472 0.0714286 0
3.52005 0.142857 0
3.75472 0.142857 0
3.75472 0.0714286 0
3.98938 0.0714286 0
3.75472 0.142857 0
3.98938 0.142857 0
3.98938 0.0714286 0
4.22405 0.0714286 0
3.98938 0.142857 0
4.22405 0.142857 0
4.22405 0.0714286 0
4.45872 0.0714286 0
4.22405 0.142857 0
4.45872 0.142857 0
4.45872 0.0714286 0
4.69339 0.0714286 0
4.45872 0.142857 0
4.69339 0.142857 0
4.69339 0.0714286 0
4.92806 0.0714286 0
4.69339 0.142857 0
4.92806 0.142857 0
4.92806 0.0714286 0
5.16273 0.0714286 0
4.92806 0.142857 0
5.16273 0.142857 0
5.16273 0.0714286 0
5.3974 0.0714286 0
5.16273 0.142857 0
5.3974 0.142857 0
5.3974 0.0714286 0
5.63207 0.0714286 0
5.3974 0.142857 0
5.63207 0.142857 0
-5.63207 0.142857 0
-5.3974 0.142857 0
-5.63207 0.214286 0
-5.3974 0.214286 0
-5.3974 0.142857 0
-5.16273 0.142857 0
-5.3974 0.214286 0
-5.16273 0.214286 0
-5.16273 0.142857 0
-4.92806 0.142857 0
-5.16273 0.214286 0
-4.92806 0.214286 0
-4.92806 0.142857 0
-4.69339 0.142857 0
-4.92806 0.214286 0
-4.69339 0.214286 0
-4.69339 0.142857 0
-4.45872 0.142857 0
-4.69339 0.214286 0
-4.45872 0.214286 0
-4.45872 0.142857 0
-4.22405 0.142857 0
-4.45872 0.214286 0
-4.22405 0.214286 0
-4.22405 0.142857 0
-3.98938 0.142857 0
-4.22405 0.214286 0
-3.98938 0.214286 0
-3.98938 0.142857 0
-3.75472 0.142857 0
-3.98938 0.214286 0
-3.75472 0.214286 0
-3.75472 0.142857 0
-3.52005 0.142857 0
-3.75472 0.214286 0
-3.52005 0.214286 0
-3.52005 0.142857 0
-3.28538 0.142857 0
-3.52005 0.214286 0
-3.28538 0.214286 0
-3.28538 0.142857 0
-3.05071 0.142857 0
-3.28538 0.214286 0
-3.05071 0.214286 0
-3.05071 0.142857 0
-2.81604 0.142857 0
-3.05071 0.214286 0
-2.81604 0.214286 0
-2.81604 0.142857 0
-2.58137 0.142857 0
-2.81604 0.214286 0
-2.58137 0.214286 0
-2.58137 0.142857 0
-2.3467 0.142857 0
-2.58137 0.214286 0
-2.3467 0.214286 0
-2.3467 0.142857 0
-2.11203 0.142857 0
-2.3467 0.214286 0
-2.11203 0.214286 0
-2.11203 0.142857 0
-1.87736 0.142857 0
-2.11203 0.214286 0
-1.87736 0.214286 0
-1.87736 0.142857 0
-1.64269 0.142857 0
-1.87736 0.214286 0
-1.64269 0.214286 0
-1.64269 0.142857 0
-1.40802 0.142857 0
-1.64269 0.214286 0
-1.40802 0.214286 0
-1.40802 0.142857 0
-1.17335 0.142857 0
-1.40802 0.214286 0
-1.17335 0.214286 0
-1.17335 0.142857 0
-0.938679 0.142857 0
-1.17335 0.214286 0
-0.938679 0.214286 0
-0.938679 0.142857 0
-0.704009 0.142857 0
-0.938679 0.214286 0
-0.704009 0.214286 0
-0.704009 0.142857 0
-0.469339 0.142857 0
-0.704009 0.214286 0
-0.469339 0.214286 0
-0.469339 0.142857 0
-0.23467 0.142857 0
-0.469339 0.214286 0
-0.23467 0.214286 0
-0.23467 0.142857 0
0 0.142857 0
-0.23467 0.214286 0
0 0.214286 0
0 0.142857 0
0.23467 0.142857 0
0 0.214286 0
0.23467 0.214286 0
0.23467 0.142857 0
0.469339 0.142857 0
0.23467 0.214286 0
0.469339 0.214286 0
0.469339 0.142857 0
0.704009 0.142857 0
0.469339 0.214286 0
0.704009 0.214286 0
0.704009 0.142857 0
0.938679 0.142857 0
0.704009 0.214286 0
0.938679 0.214286 0
0.938679 0.142857 0
1.17335 0.142857 0
0.938679 0.214286 0
1.17335 0.214286 0
1.17335 0.142857 0
1.40802 0.142857 0
1.17335 0.214286 0
1.40802 0.214286 0
1.40802 0.142857 0
1.64269 0.142857 0
1.40802 0.214286 0
1.64269 0.214286 0
1.64269 0.142857 0
1.87736 0.142857 0
1.64269 0.214286 0
1.87736 0.214286 0
1.87736 0.142857 0
2.11203 0.142857 0
1.87736 0.214286 0
2.11203 0.214286 0
2.11203 0.142857 0
2.3467 0.142857 0
2.11203 0.214286 0
2.3467 0.214286 0
2.3467 0.142857 0
2.58137 0.142857 0
2.3467 0.214286 0
2.58137 0.214286 0
2.58137 0.142857 0
2.81604 0.142857 0
2.58137 0.214286 0
2.81604 0.214286 0
2.81604 0.142857 0
3.05071 0.142857 0
2.81604 0.214286 0
[...]
POINT_DATA 2688
SCALARS x1_displacement double 1
LOOKUP_TABLE default
2.3266e-16 -0.0268119 1.71869e-16 -0.026589 -0.0268119 -0.0501789 -0.026589 -0.0498275 -0.0501789 -0.0659159 -0.0498275 -0.0655754 -0.0659159 -0.0689842 -0.0655754 -0.0687554 -0.0689842 -0.0553534 -0.0687554 -0.0552366 -0.0553534 -0.0271666 -0.0552366 -0.0270998 -0.0271666 0.00360235 -0.0270998 0.00361125 0.00360235 0.023531 0.00361125 0.0233882 0.023531 0.0283344 0.0233882 0.0279909 0.0283344 0.0212612 0.0279909 0.0207722 0.0212612 0.00756108 0.0207722 0.00704544 0.00756108 -0.0082105 0.00704544 -0.008642 -0.0082105 -0.0227119 -0.008642 -0.0229993 -0.0227119 -0.0336524 -0.0229993 -0.0337895 -0.0336524 -0.0396131 -0.0337895 -0.0396286 -0.0396131 -0.0400452 -0.0396286 -0.0399806 -0.0400452 -0.0354048 -0.0399806 -0.0352987 -0.0354048 -0.0271993 -0.0352987 -0.0270822 -0.0271993 -0.0176703 -0.0270822 -0.0175638 -0.0176703 -0.00908175 -0.0175638 -0.00899975 -0.00908175 -0.00298218 -0.00899975 -0.00292932 -0.00298218 0.000143625 -0.00292932 0.000171211 0.000143625 0.000769596 0.000171211 0.000780175 0.000769596 0 0.000780175 0 0 -0.000769596 0 -0.000780175 -0.000769596 -0.000143625 -0.000780175 -0.000171211 -0.000143625 0.00298218 -0.000171211 0.00292932 0.00298218 0.00908175 0.00292932 0.00899975 0.00908175 0.0176703 0.00899975 0.0175638 0.0176703 0.0271993 0.0175638 0.0270822 0.0271993 0.0354048 0.0270822 0.0352987 0.0354048 0.0400452 0.0352987 0.0399806 0.0400452 0.0396131 0.0399806 0.0396286 0.0396131 0.0336524 0.0396286 0.0337895 0.0336524 0.0227119 0.0337895 0.0229993 0.0227119 0.0082105 0.0229993 0.008642 0.0082105 -0.00756108 0.008642 -0.00704544 -0.00756108 -0.0212612 -0.00704544 -0.0207722 -0.0212612 -0.0283344 -0.0207722 -0.0279909 -0.0283344 -0.023531 -0.0279909 -0.0233882 -0.023531 -0.00360235 -0.0233882 -0.00361125 -0.00360235 0.0271666 -0.00361125 0.0270998 0.0271666 0.0553534 0.0270998 0.0552366 0.0553534 0.0689842 0.0552366 0.0687554 0.0689842 0.0659159 0.0687554 0.0655754 0.0659159 0.0501789 0.0655754 0.0498275 0.0501789 0.0268119 0.0498275 0.026589 0.0268119 2.3266e-16 0.026589 1.71869e-16 1.71869e-16 -0.026589 1.21581e-16 -0.0258686 -0.026589 -0.0498275 -0.0258686 -0.0486826 -0.0498275 -0.0655754 -0.0486826 -0.064463 -0.0655754 -0.0687554 -0.064463 -0.0680326 -0.0687554 -0.0552366 -0.0680326 -0.0549116 -0.0552366 -0.0270998 -0.0549116 -0.0269174 -0.0270998 0.00361125 -0.0269174 0.00365075 0.00361125 0.0233882 0.00365075 0.0229527 0.0233882 0.0279909 0.0229527 0.0269303 0.0279909 0.0207722 0.0269303 0.0192967 0.0207722 0.00704544 0.0192967 0.00553886 0.00704544 -0.008642 0.00553886 -0.00985612 -0.008642 -0.0229993 -0.00985612 -0.0237672 -0.0229993 -0.0337895 -0.0237672 -0.0341173 -0.0337895 -0.0396286 -0.0341173 -0.0396175 -0.0396286 -0.0399806 -0.0396175 -0.0397586 -0.0399806 -0.0352987 -0.0397586 -0.0349774 -0.0352987 -0.0270822 -0.0349774 -0.0267442 -0.0270822 -0.0175638 -0.0267442 -0.0172674 -0.0175638 -0.00899975 -0.0172674 -0.00878111 -0.00899975 -0.00292932 -0.00878111 -0.00279842 -0.00292932 0.000171211 -0.00279842 0.000230972 0.000171211 0.000780175 0.000230972 0.000798764 0.000780175 0 0.000798764 0 0 -0.000780175 0 -0.000798764 -0.000780175 -0.000171211 -0.000798764 -0.000230972 -0.000171211 0.00292932 -0.000230972 0.00279842 0.00292932 0.00899975 0.00279842 0.00878111 0.00899975 0.0175638 0.00878111 0.0172674 0.0175638 0.0270822 0.0172674 0.0267442 0.0270822 0.0352987 0.0267442 0.0349774 0.0352987 0.0399806 0.0349774 0.0397586 0.0399806 0.0396286 0.0397586 0.0396175 0.0396286 0.0337895 0.0396175 0.0341173 0.0337895 0.0229993 0.0341173 0.0237672 0.0229993 0.008642 0.0237672 0.00985612 0.008642 -0.00704544 0.00985612 -0.00553886 -0.00704544 -0.0207722 -0.00553886 -0.0192967 -0.0207722 -0.0279909 -0.0192967 -0.0269303 -0.0279909 -0.0233882 -0.0269303 -0.0229527 -0.0233882 -0.00361125 -0.0229527 -0.00365075 -0.00361125 0.0270998 -0.00365075 0.0269174 0.0270998 0.0552366 0.0269174 0.0549116 0.0552366 0.0687554 0.0549116 0.0680326 0.0687554 0.0655754 0.0680326 0.064463 0.0655754 0.0498275 0.064463 0.0486826 0.0498275 0.026589 0.0486826 0.0258686 0.026589 1.71869e-16 0.0258686 1.21581e-16 1.21581e-16 -0.0258686 1.04618e-16 -0.0246214 -0.0258686 -0.0486826 -0.0246214 -0.0466931 -0.0486826 -0.064463 -0.0466931 -0.0625324 -0.064463 -0.0680326 -0.0625324 -0.0668087 -0.0680326 -0.0549116 -0.0668087 -0.0544092 -0.0549116 -0.0269174 -0.0544092 -0.0266366 -0.0269174 0.00365075 -0.0266366 0.0037323 0.00365075 0.0229527 0.0037323 0.0222288 0.0229527 0.0269303 0.0222288 0.025151 0.0269303 0.0192967 0.025151 0.0168599 0.0192967 0.00553886 0.0168599 0.00310917 0.00553886 -0.00985612 0.00310917 -0.011757 -0.00985612 -0.0237672 -0.011757 -0.0249198 -0.0237672 -0.0341173 -0.0249198 -0.0345625 -0.0341173 -0.0396175 -0.0345625 -0.0395379 -0.0396175 -0.0397586 -0.0395379 -0.0393669 -0.0397586 -0.0349774 -0.0393669 -0.03445 -0.0349774 -0.0267442 -0.03445 -0.0262063 -0.0267442 -0.0172674 -0.0262063 -0.0168065 -0.0172674 -0.00878111 -0.0168065 -0.00845228 -0.00878111 -0.00279842 -0.00845228 -0.00261397 -0.00279842 0.000230972 -0.00261397 0.000303593 0.000230972 0.000798764 0.000303593 0.000814613 0.000798764 0 0.000814613 0 0 -0.000798764 0 -0.000814613 -0.000798764 -0.000230972 -0.000814613 -0.000303593 -0.000230972 0.00279842 -0.000303593 0.00261397 0.00279842 0.00878111 0.00261397 0.00845228 0.00878111 0.0172674 0.00845228 0.0168065 0.0172674 0.0267442 0.0168065 0.0262063 0.0267442 0.0349774 0.0262063 0.03445 0.0349774 0.0397586 0.03445 0.0393669 0.0397586 0.0396175 0.0393669 0.0395379 0.0396175 0.0341173 0.0395379 0.0345625 0.0341173 0.0237672 0.0345625 0.0249198 0.0237672 0.00985612 0.0249198 0.011757 0.00985612 -0.00553886 0.011757 -0.00310917 -0.00553886 -0.0192967 -0.00310917 -0.0168599 -0.0192967 -0.0269303 -0.0168599 -0.025151 -0.0269303 -0.0229527 -0.025151 -0.0222288 -0.0229527 -0.00365075 -0.0222288 -0.0037323 -0.00365075 0.0269174 -0.0037323 0.0266366 0.0269174 0.0549116 0.0266366 0.0544092 0.0549116 0.0680326 0.0544092 0.0668087 0.0680326 0.064463 0.0668087 0.0625324 0.064463 0.0486826 0.0625324 0.0466931 0.0486826 0.0258686 0.0466931 0.0246214 0.0258686 1.21581e-16 0.0246214 1.04618e-16 1.04618e-16 -0.0246214 9.1438e-17 -0.0227796 -0.0246214 -0.0466931 -0.0227796 -0.043727 -0.0466931 -0.0625324 -0.043727 -0.0596212 -0.0625324 -0.0668087 -0.0596212 -0.0649612 -0.0668087 -0.0544092 -0.0649612 -0.0536904 -0.0544092 -0.0266366 -0.0536904 -0.0262631 -0.0266366 0.0037323 -0.0262631 0.00382243 0.0037323 0.0222288 0.00382243 0.0211259 0.0222288 0.025151 0.0211259 0.0225462 0.025151 0.0168599 0.0225462 0.0134094 0.0168599 0.00310917 0.0134094 -0.000213545 0.00310917 -0.011757 -0.000213545 -0.0142538 -0.011757 -0.0249198 -0.0142538 -0.0263441 -0.0249198 -0.0345625 -0.0263441 -0.0350208 -0.0345625 -0.0395379 -0.0350208 -0.0393116 -0.0395379 -0.0393669 -0.0393116 -0.0387596 -0.0393669 -0.03445 -0.0387596 -0.033701 -0.03445 -0.0262063 -0.033701 -0.0254781 -0.0262063 -0.0168065 -0.0254781 -0.0162091 -0.0168065 -0.00845228 -0.0162091 -0.00805237 -0.00845228 -0.00261397 -0.00805237 -0.00241797 -0.00261397 0.000303593 -0.00241797 0.000353778 0.000303593 0.000814613 0.000353778 0.000807608 0.000814613 0 0.000807608 0 0 -0.000814613 0 -0.000807608 -0.000814613 -0.000303593 -0.000807608 -0.000353778 -0.000303593 0.00261397 -0.000353778 0.00241797 0.00261397 0.00845228 0.00241797 0.00805237 0.00845228 0.0168065 0.00805237 0.0162091 0.0168065 0.0262063 0.0162091 0.0254781 0.0262063 0.03445 0.0254781 0.033701 0.03445 0.0393669 0.033701 0.0387596 0.0393669 0.0395379 0.0387596 0.0393116 0.0395379 0.0345625 0.0393116 0.0350208 0.0345625 0.0249198 0.0350208 0.0263441 0.0249198 0.011757 0.0263441 0.0142538 0.011757 -0.00310917 0.0142538 0.000213545 -0.00310917 -0.0168599 0.000213545 -0.0134094 -0.0168599 -0.025151 -0.0134094 -0.0225462 -0.025151 -0.0222288 -0.0225462 -0.0211259 -0.0222288 -0.0037323 -0.0211259 -0.00382243 -0.0037323 0.0266366 -0.00382243 0.0262631 0.0266366 0.0544092 0.0262631 0.0536904 0.0544092 0.0668087 0.0536904 0.0649612 0.0668087 0.0625324 0.0649612 0.0596212 0.0625324 0.0466931 0.0596212 0.043727 0.0466931 0.0246214 0.043727 0.0227796 0.0246214 1.04618e-16 0.0227796 9.1438e-17 9.1438e-17 -0.0227796 8.7157e-17 -0.0202503 -0.0227796 -0.043727 -0.0202503 -0.0395875 -0.043727 -0.0596212 -0.0395875 -0.0554623 -0.0596212 -0.0649612 -0.0554623 -0.0622602 -0.0649612 -0.0536904 -0.0622602 -0.0526557 -0.0536904 -0.0262631 -0.0526557 -0.0257939 -0.0262631 0.00382243 -0.0257939 0.00384732 0.00382243 0.0211259 0.00384732 0.019463 0.0211259 0.0225462 0.019463 0.0189113 0.0225462 0.0134094 0.0189113 0.00882853 0.0134094 -0.000213545 0.00882853 -0.00442357 -0.000213545 -0.0142538 -0.00442357 -0.0172526 -0.0142538 -0.0263441 -0.0172526 -0.0279085 -0.0263441 -0.0350208 -0.0279085 -0.0353606 -0.0350208 -0.0393116 -0.0353606 -0.03883 -0.0393116 -0.0387596 -0.03883 -0.0378626 -0.0387596 -0.033701 -0.0378626 -0.0326951 -0.033701 -0.0254781 -0.0326951 -0.0245605 -0.0254781 -0.0162091 -0.0245605 -0.0155062 -0.0162091 -0.00805237 -0.0155062 -0.0076327 -0.00805237 -0.00241797 -0.0076327 -0.00226857 -0.00241797 0.000353778 -0.00226857 0.000331721 0.000353778 0.000807608 0.000331721 0.000749239 0.000807608 0 0.000749239 0 0 -0.000807608 0 -0.000749239 -0.000807608 -0.000353778 -0.000749239 -0.000331721 -0.000353778 0.00241797 -0.000331721 0.00226857 0.00241797 0.00805237 0.00226857 0.0076327 0.00805237 0.0162091 0.0076327 0.0155062 0.0162091 0.0254781 0.0155062 0.0245605 0.0254781 0.033701 0.0245605 0.0326951 0.033701 0.0387596 0.0326951 0.0378626 0.0387596 0.0393116 0.0378626 0.03883 0.0393116 0.0350208 0.03883 0.0353606 0.0350208 0.0263441 0.0353606 0.0279085 0.0263441 0.0142538 0.0279085 0.0172526 0.0142538 0.000213545 0.0172526 0.00442357 0.000213545 -0.0134094 0.00442357 -0.00882853 -0.0134094 -0.0225462 -0.00882853 -0.0189113 -0.0225462 -0.0211259 -0.0189113 -0.019463 -0.0211259 -0.00382243 -0.019463 -0.00384732 -0.00382243 0.0262631 -0.00384732 0.0257939 0.0262631 0.0536904 0.0257939 0.0526557 0.0536904 0.0649612 0.0526557 0.0622602 0.0649612 0.0596212 0.0622602 0.0554623 0.0596212 0.043727 0.0554623 0.0395875 0.043727 0.0227796 0.0395875 0.0202503 0.0227796 9.1438e-17 0.0202503 8.7157e-17 8.7157e-17 -0.0202503 7.95984e-17 -0.0169326 -0.0202503 -0.0395875 -0.0169326 -0.0340353 -0.0395875 -0.0554623 -0.0340353 -0.049693 -0.0554623 -0.0622602 -0.049693 -0.0583624 -0.0622602 -0.0526557 -0.0583624 -0.0511412 -0.0526557 -0.0257939 -0.0511412 -0.0252197 -0.0257939 0.00384732 -0.0252197 0.00368707 0.00384732 0.019463 0.00368707 0.0169586 0.019463 0.0189113 0.0169586 0.0139454 0.0189113 0.00882853 0.0139454 0.00295226 0.00882853 -0.00442357 0.00295226 -0.00952175 -0.00442357 -0.0172526 -0.00952175 -0.0206468 -0.0172526 -0.0279085 -0.0206468 -0.029461 -0.0279085 -0.0353606 -0.029461 -0.0354253 -0.0353606 -0.03883 -0.0354253 -0.0379566 -0.03883 -0.0378626 -0.0379566 -0.0365771 -0.0378626 -0.0326951 -0.0365771 -0.03138 -0.0326951 -0.0245605 -0.03138 -0.0234487 -0.0245605 -0.0155062 -0.0234487 -0.0147341 -0.0155062 -0.0076327 -0.0147341 -0.00725806 -0.0076327 -0.00226857 -0.00725806 -0.00224055 -0.00226857 0.000331721 -0.00224055 0.000173383 0.000331721 0.000749239 0.000173383 0.000603017 0.000749239 0 0.000603017 0 0 -0.000749239 0 -0.000603017 -0.000749239 -0.000331721 -0.000603017 -0.000173383 -0.000331721 0.00226857 -0.000173383 0.00224055 0.00226857 0.0076327 0.00224055 0.00725806 0.0076327 0.0155062 0.00725806 0.0147341 0.0155062 0.0245605 0.0147341 0.0234487 0.0245605 0.0326951 0.0234487 0.03138 0.0326951 0.0378626 0.03138 0.0365771 0.0378626 0.03883 0.0365771 0.0379566 0.03883 0.0353606 0.0379566 0.0354253 0.0353606 0.0279085 0.0354253 0.029461 0.0279085 0.0172526 0.029461 0.0206468 0.0172526 0.00442357 0.0206468 0.00952175 0.00442357 -0.00882853 0.00952175 -0.00295226 -0.00882853 -0.0189113 -0.00295226 -0.0139454 -0.0189113 -0.019463 -0.0139454 -0.0169586 -0.019463 -0.00384732 -0.0169586 -0.00368707 -0.00384732 0.0257939 -0.00368707 0.0252197 0.0257939 0.0526557 0.0252197 0.0511412 0.0526557 0.0622602 0.0511412 0.0583624 0.0622602 0.0554623 0.0583624 0.049693 0.0554623 0.0395875 0.049693 0.0340353 0.0395875 0.0202503 0.0340353 0.0169326 0.0202503 8.7157e-17 0.0169326 7.95984e-17 7.95984e-17 -0.0169326 7.97634e-17 -0.0127394 -0.0169326 -0.0340353 -0.0127394 -0.0268179 -0.0340353 -0.049693 -0.0268179 -0.0418631 -0.049693 -0.0583624 -0.0418631 -0.0527896 -0.0583624 -0.0511412 -0.0527896 -0.0488996 -0.0511412 -0.0252197 -0.0488996 -0.0245256 -0.0252197 0.00368707 -0.0245256 0.00315853 0.00368707 0.0169586 0.00315853 0.0132055 0.0169586 0.0139454 0.0132055 0.00724956 0.0139454 0.00295226 0.00724956 -0.00441152 0.00295226 -0.00952175 -0.00441152 -0.0154944 -0.00952175 -0.0206468 -0.0154944 -0.0243075 -0.0206468 -0.029461 -0.0243075 -0.0308283 -0.029461 -0.0354253 -0.0308283 -0.0350348 -0.0354253 -0.0379566 -0.0350348 -0.0365293 -0.0379566 -0.0365771 -0.0365293 -0.0347798 -0.0365771 -0.03138 -0.0347798 -0.0296871 -0.03138 -0.0234487 -0.0296871 -0.0221335 -0.0234487 -0.0147341 -0.0221335 -0.0139368 -0.0147341 -0.00725806 -0.0139368 -0.00700949 -0.00725806 -0.00224055 -0.00700949 -0.00242712 -0.00224055 0.000173383 -0.00242712 -0.000200061 0.000173383 0.000603017 -0.000200061 0.000324566 0.000603017 0 0.000324566 0 0 -0.000603017 0 -0.000324566 -0.000603017 -0.000173383 -0.000324566 0.000200061 -0.000173383 0.00224055 0.000200061 0.00242712 0.00224055 0.00725806 0.00242712 0.00700949 0.00725806 0.0147341 0.00700949 0.0139368 0.0147341 0.0234487 0.0139368 0.0221335 0.0234487 0.03138 0.0221335 0.0296871 0.03138 0.0365771 0.0296871 0.0347798 0.0365771 0.0379566 0.0347798 0.0365293 0.0379566 0.0354253 0.0365293 0.0350348 0.0354253 0.029461 0.0350348 0.0308283 0.029461 0.0206468 0.0308283 0.0243075 0.0206468 0.00952175 0.0243075 0.0154944 0.00952175 -0.00295226 0.0154944 0.00441152 -0.00295226 -0.0139454 0.00441152 -0.00724956 -0.0139454 -0.0169586 -0.00724956 -0.0132055 -0.0169586 -0.00368707 -0.0132055 -0.00315853 -0.00368707 0.0252197 -0.00315853 0.0245256 0.0252197 0.0511412 0.0245256 0.0488996 0.0511412 0.0583624 0.0488996 0.0527896 0.0583624 0.049693 0.0527896 0.0418631 0.049693 0.0340353 0.0418631 0.0268179 0.0340353 0.0169326 0.0268179 0.0127394 0.0169326 7.95984e-17 0.0127394 7.97634e-17 7.97634e-17 -0.0127394 7.68976e-17 -0.0076234 -0.0127394 -0.0268179 -0.0076234 -0.0177112 -0.0268179 -0.0418631 -0.0177112 -0.0314517 -0.0418631 -0.0527896 -0.0314517 -0.0448946 -0.0527896 -0.0488996 -0.0448946 -0.0455632 -0.0488996 -0.0245256 -0.0455632 -0.0236901 -0.0245256 0.00315853 -0.0236901 0.001982 0.00315853 0.0132055 0.001982 0.0076283 0.0132055 0.00724956 0.0076283 -0.00167241 0.00724956 -0.00441152 -0.00167241 -0.0134486 -0.00441152 -0.0154944 -0.0134486 -0.0222877 -0.0154944 -0.0243075 -0.0222877 -0.0280754 -0.0243075 -0.0308283 -0.0280754 -0.0318157 -0.0308283 -0.0350348 -0.0318157 -0.0339871 -0.0350348 -0.0365293 -0.0339871 -0.0343603 -0.0365293 -0.0347798 -0.0343603 -0.032323 -0.0347798 -0.0296871 -0.032323 -0.0275312 -0.0296871 -0.0221335 -0.0275312 -0.0206031 -0.0221335 -0.0139368 -0.0206031 -0.0131701 -0.0139368 -0.00700949 -0.0131701 -0.00698872 -0.00700949 -0.00242712 -0.00698872 -0.00294294 -0.00242712 -0.000200061 -0.00294294 -0.000883218 -0.000200061 0.000324566 -0.000883218 -0.000138293 0.000324566 0 -0.000138293 0 0 -0.000324566 0 0.000138293 -0.000324566 0.000200061 0.000138293 0.000883218 0.000200061 0.00242712 0.000883218 0.00294294 0.00242712 0.00700949 0.00294294 0.00698872 0.00700949 0.0139368 0.00698872 0.0131701 0.0139368 0.0221335 0.0131701 0.0206031 0.0221335 0.0296871 0.0206031 0.0275312 0.0296871 0.0347798 0.0275312 0.032323 0.0347798 0.0365293 0.032323 0.0343603 0.0365293 0.0350348 0.0343603 0.0339871 0.0350348 0.0308283 0.0339871 0.0318157 0.0308283 0.0243075 0.0318157 0.0280754 0.0243075 0.0154944 0.0280754 0.0222877 0.0154944 0.00441152 0.0222877 0.0134486 0.00441152 -0.00724956 0.0134486 0.00167241 -0.00724956 -0.0132055 0.00167241 -0.0076283 -0.0132055 -0.00315853 -0.0076283 -0.001982 -0.00315853 0.0245256 -0.001982 0.0236901 0.0245256 0.0488996 0.0236901 0.0455632 0.0488996 0.0527896 0.0455632 0.0448946 0.0527896 0.0418631 0.0448946 0.0314517 0.0418631 0.0268179 0.0314517 0.0177112 0.0268179 0.0127394 0.0177112 0.0076234 0.0127394 7.97634e-17 0.0076234 7.68976e-17 7.68976e-17 -0.0076234 7.29307e-17 -0.0015996 -0.0076234 -0.0177112 -0.0015996 -0.00657795 -0.0177112 -0.0314517 -0.00657795 -0.017906 -0.0314517 -0.0448946 -0.017906 -0.0338107 -0.0448946 -0.0455632 -0.0338107 -0.0405743 -0.0455632 -0.0236901 -0.0405743 -0.0226812 -0.0236901 0.001982 -0.0226812 -0.000279864 0.001982 0.0076283 -0.000279864 -0.000582245 0.0076283 -0.00167241 -0.000582245 -0.0133974 -0.00167241 -0.0134486 -0.0133974 -0.0242864 -0.0134486 -0.0222877 -0.0242864 -0.0297824 -0.0222877 -0.0280754 -0.0297824 -0.0317582 -0.0280754 -0.0318157 -0.0317582 -0.0322107 -0.0318157 -0.0339871 -0.0322107 -0.032061 -0.0339871 -0.0343603 -0.032061 -0.0312357 -0.0343603 -0.032323 -0.0312357 -0.0290304 -0.032323 -0.0275312 -0.0290304 -0.0248083 -0.0275312 -0.0206031 -0.0248083 -0.0188445 -0.0206031 -0.0131701 -0.0188445 -0.012507 -0.0131701 -0.00698872 -0.012507 -0.00732455 -0.00698872 -0.00294294 -0.00732455 -0.00392823 -0.00294294 -0.000883218 -0.00392823 -0.00198745 -0.000883218 -0.000138293 -0.00198745 -0.000845146 -0.000138293 0 -0.000845146 0 0 0.000138293 0 0.000845146 0.000138293 0.000883218 0.000845146 0.00198745 0.000883218 0.00294294 0.00198745 0.00392823 0.00294294 0.00698872 0.00392823 0.00732455 0.00698872 0.0131701 0.00732455 0.012507 0.0131701 0.0206031 0.012507 0.0188445 0.0206031 0.0275312 0.0188445 0.0248083 0.0275312 0.032323 0.0248083 0.0290304 0.032323 0.0343603 0.0290304 0.0312357 0.0343603 0.0339871 0.0312357 0.032061 0.0339871 0.0318157 0.032061 0.0322107 0.0318157 0.0280754 0.0322107 0.0317582 0.0280754 0.0222877 0.0317582 0.0297824 0.0222877 0.0134486 0.0297824 0.0242864 0.0134486 0.00167241 0.0242864 0.0133974 0.00167241 -0.0076283 0.0133974 0.000582245 -0.0076283 -0.001982 0.000582245 0.000279864 -0.001982 0.0236901 0.000279864 0.0226812 0.0236901 0.0455632 0.0226812 0.0405743 0.0455632 0.0448946 0.0405743 0.0338107 0.0448946 0.0314517 0.0338107 0.017906 0.0314517 0.0177112 0.017906 0.00657795 0.0177112 0.0076234 0.00657795 0.0015996 0.0076234 7.68976e-17 0.0015996 7.29307e-17 7.29307e-17 -0.0015996 6.48575e-17 0.00524397 -0.0015996 -0.00657795 0.00524397 0.00656142 -0.00657795 -0.017906 0.00656142 -0.000726678 -0.017906 -0.0338107 -0.000726678 -0.0183903 -0.0338107 -0.0405743 -0.0183903 -0.0330591 -0.0405743 -0.0226812 -0.0330591 -0.0214458 -0.0226812 -0.000279864 -0.0214458 -0.00433598 -0.000279864 -0.000582245 -0.00433598 -0.0125638 -0.000582245 -0.0133974 -0.0125638 -0.0285254 -0.0133974 -0.0242864 -0.0285254 -0.0369184 -0.0242864 -0.0297824 -0.0369184 -0.0377775 -0.0297824 -0.0317582 -0.0377775 -0.0351359 -0.0317582 -0.0322107 -0.0351359 -0.0317884 -0.0322107 -0.032061 -0.0317884 -0.0290201 -0.032061 -0.0312357 -0.0290201 -0.0269146 -0.0312357 -0.0290304 -0.0269146 -0.0246917 -0.0290304 -0.0248083 -0.0246917 -0.0213894 -0.0248083 -0.0188445 -0.0213894 -0.0168445 -0.0188445 -0.012507 -0.0168445 -0.0120449 -0.012507 -0.00732455 -0.0120449 -0.00818194 -0.00732455 -0.00392823 -0.00818194 -0.00555372 -0.00392823 -0.00198745 -0.00555372 -0.00364129 -0.00198745 -0.000845146 -0.00364129 -0.00186189 -0.000845146 0 -0.00186189 0 0 0.000845146 0 0.00186189 0.000845146 0.00198745 0.00186189 0.00364129 0.00198745 0.00392823 0.00364129 0.00555372 0.00392823 0.00732455 0.00555372 0.00818194 0.00732455 0.012507 0.00818194 0.0120449 0.012507 0.0188445 0.0120449 0.0168445 0.0188445 0.0248083 0.0168445 0.0213894 0.0248083 0.0290304 0.0213894 0.0246917 0.0290304 0.0312357 0.0246917 0.0269146 0.0312357 0.032061 0.0269146 0.0290201 0.032061 0.0322107 0.0290201 0.0317884 0.0322107 0.0317582 0.0317884 0.0351359 0.0317582 0.0297824 0.0351359 0.0377775 0.0297824 0.0242864 0.