# vtk DataFile Version 3.0
#This file was generated by the deal.II library on 2017/9/27 at 13:18:20
ASCII
DATASET UNSTRUCTURED_GRID

POINTS 2688 double
-5.63207 0 0
-5.3974 0 0
-5.63207 0.0714286 0
-5.3974 0.0714286 0
-5.3974 0 0
-5.16273 0 0
-5.3974 0.0714286 0
-5.16273 0.0714286 0
-5.16273 0 0
-4.92806 0 0
-5.16273 0.0714286 0
-4.92806 0.0714286 0
-4.92806 0 0
-4.69339 0 0
-4.92806 0.0714286 0
-4.69339 0.0714286 0
-4.69339 0 0
-4.45872 0 0
-4.69339 0.0714286 0
-4.45872 0.0714286 0
-4.45872 0 0
-4.22405 0 0
-4.45872 0.0714286 0
-4.22405 0.0714286 0
-4.22405 0 0
-3.98938 0 0
-4.22405 0.0714286 0
-3.98938 0.0714286 0
-3.98938 0 0
-3.75472 0 0
-3.98938 0.0714286 0
-3.75472 0.0714286 0
-3.75472 0 0
-3.52005 0 0
-3.75472 0.0714286 0
-3.52005 0.0714286 0
-3.52005 0 0
-3.28538 0 0
-3.52005 0.0714286 0
-3.28538 0.0714286 0
-3.28538 0 0
-3.05071 0 0
-3.28538 0.0714286 0
-3.05071 0.0714286 0
-3.05071 0 0
-2.81604 0 0
-3.05071 0.0714286 0
-2.81604 0.0714286 0
-2.81604 0 0
-2.58137 0 0
-2.81604 0.0714286 0
-2.58137 0.0714286 0
-2.58137 0 0
-2.3467 0 0
-2.58137 0.0714286 0
-2.3467 0.0714286 0
-2.3467 0 0
-2.11203 0 0
-2.3467 0.0714286 0
-2.11203 0.0714286 0
-2.11203 0 0
-1.87736 0 0
-2.11203 0.0714286 0
-1.87736 0.0714286 0
-1.87736 0 0
-1.64269 0 0
-1.87736 0.0714286 0
-1.64269 0.0714286 0
-1.64269 0 0
-1.40802 0 0
-1.64269 0.0714286 0
-1.40802 0.0714286 0
-1.40802 0 0
-1.17335 0 0
-1.40802 0.0714286 0
-1.17335 0.0714286 0
-1.17335 0 0
-0.938679 0 0
-1.17335 0.0714286 0
-0.938679 0.0714286 0
-0.938679 0 0
-0.704009 0 0
-0.938679 0.0714286 0
-0.704009 0.0714286 0
-0.704009 0 0
-0.469339 0 0
-0.704009 0.0714286 0
-0.469339 0.0714286 0
-0.469339 0 0
-0.23467 0 0
-0.469339 0.0714286 0
-0.23467 0.0714286 0
-0.23467 0 0
0 0 0
-0.23467 0.0714286 0
0 0.0714286 0
0 0 0
0.23467 0 0
0 0.0714286 0
0.23467 0.0714286 0
0.23467 0 0
0.469339 0 0
0.23467 0.0714286 0
0.469339 0.0714286 0
0.469339 0 0
0.704009 0 0
0.469339 0.0714286 0
0.704009 0.0714286 0
0.704009 0 0
0.938679 0 0
0.704009 0.0714286 0
0.938679 0.0714286 0
0.938679 0 0
1.17335 0 0
0.938679 0.0714286 0
1.17335 0.0714286 0
1.17335 0 0
1.40802 0 0
1.17335 0.0714286 0
1.40802 0.0714286 0
1.40802 0 0
1.64269 0 0
1.40802 0.0714286 0
1.64269 0.0714286 0
1.64269 0 0
1.87736 0 0
1.64269 0.0714286 0
1.87736 0.0714286 0
1.87736 0 0
2.11203 0 0
1.87736 0.0714286 0
2.11203 0.0714286 0
2.11203 0 0
2.3467 0 0
2.11203 0.0714286 0
2.3467 0.0714286 0
2.3467 0 0
2.58137 0 0
2.3467 0.0714286 0
2.58137 0.0714286 0
2.58137 0 0
2.81604 0 0
2.58137 0.0714286 0
2.81604 0.0714286 0
2.81604 0 0
3.05071 0 0
2.81604 0.0714286 0
3.05071 0.0714286 0
3.05071 0 0
3.28538 0 0
3.05071 0.0714286 0
3.28538 0.0714286 0
3.28538 0 0
3.52005 0 0
3.28538 0.0714286 0
3.52005 0.0714286 0
3.52005 0 0
3.75472 0 0
3.52005 0.0714286 0
3.75472 0.0714286 0
3.75472 0 0
3.98938 0 0
3.75472 0.0714286 0
3.98938 0.0714286 0
3.98938 0 0
4.22405 0 0
3.98938 0.0714286 0
4.22405 0.0714286 0
4.22405 0 0
4.45872 0 0
4.22405 0.0714286 0
4.45872 0.0714286 0
4.45872 0 0
4.69339 0 0
4.45872 0.0714286 0
4.69339 0.0714286 0
4.69339 0 0
4.92806 0 0
4.69339 0.0714286 0
4.92806 0.0714286 0
4.92806 0 0
5.16273 0 0
4.92806 0.0714286 0
5.16273 0.0714286 0
5.16273 0 0
5.3974 0 0
5.16273 0.0714286 0
5.3974 0.0714286 0
5.3974 0 0
5.63207 0 0
5.3974 0.0714286 0
5.63207 0.0714286 0
-5.63207 0.0714286 0
-5.3974 0.0714286 0
-5.63207 0.142857 0
-5.3974 0.142857 0
-5.3974 0.0714286 0
-5.16273 0.0714286 0
-5.3974 0.142857 0
-5.16273 0.142857 0
-5.16273 0.0714286 0
-4.92806 0.0714286 0
-5.16273 0.142857 0
-4.92806 0.142857 0
-4.92806 0.0714286 0
-4.69339 0.0714286 0
-4.92806 0.142857 0
-4.69339 0.142857 0
-4.69339 0.0714286 0
-4.45872 0.0714286 0
-4.69339 0.142857 0
-4.45872 0.142857 0
-4.45872 0.0714286 0
-4.22405 0.0714286 0
-4.45872 0.142857 0
-4.22405 0.142857 0
-4.22405 0.0714286 0
-3.98938 0.0714286 0
-4.22405 0.142857 0
-3.98938 0.142857 0
-3.98938 0.0714286 0
-3.75472 0.0714286 0
-3.98938 0.142857 0
-3.75472 0.142857 0
-3.75472 0.0714286 0
-3.52005 0.0714286 0
-3.75472 0.142857 0
-3.52005 0.142857 0
-3.52005 0.0714286 0
-3.28538 0.0714286 0
-3.52005 0.142857 0
-3.28538 0.142857 0
-3.28538 0.0714286 0
-3.05071 0.0714286 0
-3.28538 0.142857 0
-3.05071 0.142857 0
-3.05071 0.0714286 0
-2.81604 0.0714286 0
-3.05071 0.142857 0
-2.81604 0.142857 0
-2.81604 0.0714286 0
-2.58137 0.0714286 0
-2.81604 0.142857 0
-2.58137 0.142857 0
-2.58137 0.0714286 0
-2.3467 0.0714286 0
-2.58137 0.142857 0
-2.3467 0.142857 0
-2.3467 0.0714286 0
-2.11203 0.0714286 0
-2.3467 0.142857 0
-2.11203 0.142857 0
-2.11203 0.0714286 0
-1.87736 0.0714286 0
-2.11203 0.142857 0
-1.87736 0.142857 0
-1.87736 0.0714286 0
-1.64269 0.0714286 0
-1.87736 0.142857 0
-1.64269 0.142857 0
-1.64269 0.0714286 0
-1.40802 0.0714286 0
-1.64269 0.142857 0
-1.40802 0.142857 0
-1.40802 0.0714286 0
-1.17335 0.0714286 0
-1.40802 0.142857 0
-1.17335 0.142857 0
-1.17335 0.0714286 0
-0.938679 0.0714286 0
-1.17335 0.142857 0
-0.938679 0.142857 0
-0.938679 0.0714286 0
-0.704009 0.0714286 0
-0.938679 0.142857 0
-0.704009 0.142857 0
-0.704009 0.0714286 0
-0.469339 0.0714286 0
-0.704009 0.142857 0
-0.469339 0.142857 0
-0.469339 0.0714286 0
-0.23467 0.0714286 0
-0.469339 0.142857 0
-0.23467 0.142857 0
-0.23467 0.0714286 0
0 0.0714286 0
-0.23467 0.142857 0
0 0.142857 0
0 0.0714286 0
0.23467 0.0714286 0
0 0.142857 0
0.23467 0.142857 0
0.23467 0.0714286 0
0.469339 0.0714286 0
0.23467 0.142857 0
0.469339 0.142857 0
0.469339 0.0714286 0
0.704009 0.0714286 0
0.469339 0.142857 0
0.704009 0.142857 0
0.704009 0.0714286 0
0.938679 0.0714286 0
0.704009 0.142857 0
0.938679 0.142857 0
0.938679 0.0714286 0
1.17335 0.0714286 0
0.938679 0.142857 0
1.17335 0.142857 0
1.17335 0.0714286 0
1.40802 0.0714286 0
1.17335 0.142857 0
1.40802 0.142857 0
1.40802 0.0714286 0
1.64269 0.0714286 0
1.40802 0.142857 0
1.64269 0.142857 0
1.64269 0.0714286 0
1.87736 0.0714286 0
1.64269 0.142857 0
1.87736 0.142857 0
1.87736 0.0714286 0
2.11203 0.0714286 0
1.87736 0.142857 0
2.11203 0.142857 0
2.11203 0.0714286 0
2.3467 0.0714286 0
2.11203 0.142857 0
2.3467 0.142857 0
2.3467 0.0714286 0
2.58137 0.0714286 0
2.3467 0.142857 0
2.58137 0.142857 0
2.58137 0.0714286 0
2.81604 0.0714286 0
2.58137 0.142857 0
2.81604 0.142857 0
2.81604 0.0714286 0
3.05071 0.0714286 0
2.81604 0.142857 0
3.05071 0.142857 0
3.05071 0.0714286 0
3.28538 0.0714286 0
3.05071 0.142857 0
3.28538 0.142857 0
3.28538 0.0714286 0
3.52005 0.0714286 0
3.28538 0.142857 0
3.52005 0.142857 0
3.52005 0.0714286 0
3.75472 0.0714286 0
3.52005 0.142857 0
3.75472 0.142857 0
3.75472 0.0714286 0
3.98938 0.0714286 0
3.75472 0.142857 0
3.98938 0.142857 0
3.98938 0.0714286 0
4.22405 0.0714286 0
3.98938 0.142857 0
4.22405 0.142857 0
4.22405 0.0714286 0
4.45872 0.0714286 0
4.22405 0.142857 0
4.45872 0.142857 0
4.45872 0.0714286 0
4.69339 0.0714286 0
4.45872 0.142857 0
4.69339 0.142857 0
4.69339 0.0714286 0
4.92806 0.0714286 0
4.69339 0.142857 0
4.92806 0.142857 0
4.92806 0.0714286 0
5.16273 0.0714286 0
4.92806 0.142857 0
5.16273 0.142857 0
5.16273 0.0714286 0
5.3974 0.0714286 0
5.16273 0.142857 0
5.3974 0.142857 0
5.3974 0.0714286 0
5.63207 0.0714286 0
5.3974 0.142857 0
5.63207 0.142857 0
-5.63207 0.142857 0
-5.3974 0.142857 0
-5.63207 0.214286 0
-5.3974 0.214286 0
-5.3974 0.142857 0
-5.16273 0.142857 0
-5.3974 0.214286 0
-5.16273 0.214286 0
-5.16273 0.142857 0
-4.92806 0.142857 0
-5.16273 0.214286 0
-4.92806 0.214286 0
-4.92806 0.142857 0
-4.69339 0.142857 0
-4.92806 0.214286 0
-4.69339 0.214286 0
-4.69339 0.142857 0
-4.45872 0.142857 0
-4.69339 0.214286 0
-4.45872 0.214286 0
-4.45872 0.142857 0
-4.22405 0.142857 0
-4.45872 0.214286 0
-4.22405 0.214286 0
-4.22405 0.142857 0
-3.98938 0.142857 0
-4.22405 0.214286 0
-3.98938 0.214286 0
-3.98938 0.142857 0
-3.75472 0.142857 0
-3.98938 0.214286 0
-3.75472 0.214286 0
-3.75472 0.142857 0
-3.52005 0.142857 0
-3.75472 0.214286 0
-3.52005 0.214286 0
-3.52005 0.142857 0
-3.28538 0.142857 0
-3.52005 0.214286 0
-3.28538 0.214286 0
-3.28538 0.142857 0
-3.05071 0.142857 0
-3.28538 0.214286 0
-3.05071 0.214286 0
-3.05071 0.142857 0
-2.81604 0.142857 0
-3.05071 0.214286 0
-2.81604 0.214286 0
-2.81604 0.142857 0
-2.58137 0.142857 0
-2.81604 0.214286 0
-2.58137 0.214286 0
-2.58137 0.142857 0
-2.3467 0.142857 0
-2.58137 0.214286 0
-2.3467 0.214286 0
-2.3467 0.142857 0
-2.11203 0.142857 0
-2.3467 0.214286 0
-2.11203 0.214286 0
-2.11203 0.142857 0
-1.87736 0.142857 0
-2.11203 0.214286 0
-1.87736 0.214286 0
-1.87736 0.142857 0
-1.64269 0.142857 0
-1.87736 0.214286 0
-1.64269 0.214286 0
-1.64269 0.142857 0
-1.40802 0.142857 0
-1.64269 0.214286 0
-1.40802 0.214286 0
-1.40802 0.142857 0
-1.17335 0.142857 0
-1.40802 0.214286 0
-1.17335 0.214286 0
-1.17335 0.142857 0
-0.938679 0.142857 0
-1.17335 0.214286 0
-0.938679 0.214286 0
-0.938679 0.142857 0
-0.704009 0.142857 0
-0.938679 0.214286 0
-0.704009 0.214286 0
-0.704009 0.142857 0
-0.469339 0.142857 0
-0.704009 0.214286 0
-0.469339 0.214286 0
-0.469339 0.142857 0
-0.23467 0.142857 0
-0.469339 0.214286 0
-0.23467 0.214286 0
-0.23467 0.142857 0
0 0.142857 0
-0.23467 0.214286 0
0 0.214286 0
0 0.142857 0
0.23467 0.142857 0
0 0.214286 0
0.23467 0.214286 0
0.23467 0.142857 0
0.469339 0.142857 0
0.23467 0.214286 0
0.469339 0.214286 0
0.469339 0.142857 0
0.704009 0.142857 0
0.469339 0.214286 0
0.704009 0.214286 0
0.704009 0.142857 0
0.938679 0.142857 0
0.704009 0.214286 0
0.938679 0.214286 0
0.938679 0.142857 0
1.17335 0.142857 0
0.938679 0.214286 0
1.17335 0.214286 0
1.17335 0.142857 0
1.40802 0.142857 0
1.17335 0.214286 0
1.40802 0.214286 0
1.40802 0.142857 0
1.64269 0.142857 0
1.40802 0.214286 0
1.64269 0.214286 0
1.64269 0.142857 0
1.87736 0.142857 0
1.64269 0.214286 0
1.87736 0.214286 0
1.87736 0.142857 0
2.11203 0.142857 0
1.87736 0.214286 0
2.11203 0.214286 0
2.11203 0.142857 0
2.3467 0.142857 0
2.11203 0.214286 0
2.3467 0.214286 0
2.3467 0.142857 0
2.58137 0.142857 0
2.3467 0.214286 0
2.58137 0.214286 0
2.58137 0.142857 0
2.81604 0.142857 0
2.58137 0.214286 0
2.81604 0.214286 0
2.81604 0.142857 0
3.05071 0.142857 0
2.81604 0.214286 0
[...]
POINT_DATA 2688
SCALARS x1_displacement double 1
LOOKUP_TABLE default
1.20333e-16 -0.0263631 8.84515e-17 -0.0260344 -0.0263631 -0.0501232 -0.0260344 -0.0495954 -0.0501232 -0.0675278 -0.0495954 -0.0670117 -0.0675278 -0.0731255 -0.0670117 -0.0727974 -0.0731255 -0.0615118 -0.0727974 -0.0613806 -0.0615118 -0.0341163 -0.0613806 -0.0340506 -0.0341163 -0.00546109 -0.0340506 -0.00547336 -0.00546109 0.009524 -0.00547336 0.00926754 0.009524 0.00903554 0.00926754 0.00849966 0.00903554 -0.00125643 0.00849966 -0.00193885 -0.00125643 -0.0152681 -0.00193885 -0.0159196 -0.0152681 -0.0287115 -0.0159196 -0.0292126 -0.0287115 -0.0391038 -0.0292126 -0.0394154 -0.0391038 -0.0453244 -0.0394154 -0.0454641 -0.0453244 -0.0472212 -0.0454641 -0.0472323 -0.0472212 -0.0453204 -0.0472323 -0.0452512 -0.0453204 -0.0405807 -0.0452512 -0.0404731 -0.0405807 -0.0341431 -0.0404731 -0.0340286 -0.0341431 -0.0270872 -0.0340286 -0.0269858 -0.0270872 -0.0202423 -0.0269858 -0.0201637 -0.0202423 -0.0140943 -0.0201637 -0.0140403 -0.0140943 -0.00878801 -0.0140403 -0.00875578 -0.00878801 -0.00419382 -0.00875578 -0.00417914 -0.00419382 0 -0.00417914 0 0 0.00419382 0 0.00417914 0.00419382 0.00878801 0.00417914 0.00875578 0.00878801 0.0140943 0.00875578 0.0140403 0.0140943 0.0202423 0.0140403 0.0201637 0.0202423 0.0270872 0.0201637 0.0269858 0.0270872 0.0341431 0.0269858 0.0340286 0.0341431 0.0405807 0.0340286 0.0404731 0.0405807 0.0453204 0.0404731 0.0452512 0.0453204 0.0472212 0.0452512 0.0472323 0.0472212 0.0453244 0.0472323 0.0454641 0.0453244 0.0391038 0.0454641 0.0394154 0.0391038 0.0287115 0.0394154 0.0292126 0.0287115 0.0152681 0.0292126 0.0159196 0.0152681 0.00125643 0.0159196 0.00193885 0.00125643 -0.00903554 0.00193885 -0.00849966 -0.00903554 -0.009524 -0.00849966 -0.00926754 -0.009524 0.00546109 -0.00926754 0.00547336 0.00546109 0.0341163 0.00547336 0.0340506 0.0341163 0.0615118 0.0340506 0.0613806 0.0615118 0.0731255 0.0613806 0.0727974 0.0731255 0.0675278 0.0727974 0.0670117 0.0675278 0.0501232 0.0670117 0.0495954 0.0501232 0.0263631 0.0495954 0.0260344 0.0263631 1.20333e-16 0.0260344 8.84515e-17 8.84515e-17 -0.0260344 5.98348e-17 -0.0250399 -0.0260344 -0.0495954 -0.0250399 -0.0479816 -0.0495954 -0.0670117 -0.0479816 -0.0654167 -0.0670117 -0.0727974 -0.0654167 -0.0717956 -0.0727974 -0.0613806 -0.0717956 -0.0610225 -0.0613806 -0.0340506 -0.0610225 -0.0338695 -0.0340506 -0.00547336 -0.0338695 -0.005491 -0.00547336 0.00926754 -0.005491 0.00849713 0.00926754 0.00849966 0.00849713 0.00689885 0.00849966 -0.00193885 0.00689885 -0.00392839 -0.00193885 -0.0159196 -0.00392839 -0.0177714 -0.0159196 -0.0292126 -0.0177714 -0.030602 -0.0292126 -0.0394154 -0.030602 -0.0402548 -0.0394154 -0.0454641 -0.0402548 -0.0458196 -0.0454641 -0.0472323 -0.0458196 -0.0472341 -0.0472323 -0.0452512 -0.0472341 -0.0450367 -0.0452512 -0.0404731 -0.0450367 -0.0401595 -0.0404731 -0.0340286 -0.0401595 -0.0337022 -0.0340286 -0.0269858 -0.0337022 -0.0267009 -0.0269858 -0.0201637 -0.0267009 -0.0199458 -0.0201637 -0.0140403 -0.0199458 -0.0138928 -0.0140403 -0.00875578 -0.0138928 -0.00866904 -0.00875578 -0.00417914 -0.00866904 -0.00414013 -0.00417914 0 -0.00414013 0 0 0.00417914 0 0.00414013 0.00417914 0.00875578 0.00414013 0.00866904 0.00875578 0.0140403 0.00866904 0.0138928 0.0140403 0.0201637 0.0138928 0.0199458 0.0201637 0.0269858 0.0199458 0.0267009 0.0269858 0.0340286 0.0267009 0.0337022 0.0340286 0.0404731 0.0337022 0.0401595 0.0404731 0.0452512 0.0401595 0.0450367 0.0452512 0.0472323 0.0450367 0.0472341 0.0472323 0.0454641 0.0472341 0.0458196 0.0454641 0.0394154 0.0458196 0.0402548 0.0394154 0.0292126 0.0402548 0.030602 0.0292126 0.0159196 0.030602 0.0177714 0.0159196 0.00193885 0.0177714 0.00392839 0.00193885 -0.00849966 0.00392839 -0.00689885 -0.00849966 -0.00926754 -0.00689885 -0.00849713 -0.00926754 0.00547336 -0.00849713 0.005491 0.00547336 0.0340506 0.005491 0.0338695 0.0340506 0.0613806 0.0338695 0.0610225 0.0613806 0.0727974 0.0610225 0.0717956 0.0727974 0.0670117 0.0717956 0.0654167 0.0670117 0.0495954 0.0654167 0.0479816 0.0495954 0.0260344 0.0479816 0.0250399 0.0260344 8.84515e-17 0.0250399 5.98348e-17 5.98348e-17 -0.0250399 5.72532e-17 -0.0233885 -0.0250399 -0.0479816 -0.0233885 -0.0452786 -0.0479816 -0.0654167 -0.0452786 -0.0627229 -0.0654167 -0.0717956 -0.0627229 -0.0701191 -0.0717956 -0.0610225 -0.0701191 -0.0604766 -0.0610225 -0.0338695 -0.0604766 -0.0335888 -0.0338695 -0.005491 -0.0335888 -0.00549699 -0.005491 0.00849713 -0.00549699 0.00721584 0.00849713 0.00689885 0.00721584 0.00425587 0.00689885 -0.00392839 0.00425587 -0.00714321 -0.00392839 -0.0177714 -0.00714321 -0.0206949 -0.0177714 -0.030602 -0.0206949 -0.0327469 -0.030602 -0.0402548 -0.0327469 -0.0415186 -0.0402548 -0.0458196 -0.0415186 -0.0463283 -0.0458196 -0.0472341 -0.0463283 -0.0472009 -0.0472341 -0.0450367 -0.0472009 -0.0446781 -0.0450367 -0.0401595 -0.0446781 -0.0396567 -0.0401595 -0.0337022 -0.0396567 -0.0331878 -0.0337022 -0.0267009 -0.0331878 -0.0262572 -0.0267009 -0.0199458 -0.0262572 -0.0196102 -0.0199458 -0.0138928 -0.0196102 -0.0136684 -0.0138928 -0.00866904 -0.0136684 -0.00853889 -0.00866904 -0.00414013 -0.00853889 -0.00408229 -0.00414013 0 -0.00408229 0 0 0.00414013 0 0.00408229 0.00414013 0.00866904 0.00408229 0.00853889 0.00866904 0.0138928 0.00853889 0.0136684 0.0138928 0.0199458 0.0136684 0.0196102 0.0199458 0.0267009 0.0196102 0.0262572 0.0267009 0.0337022 0.0262572 0.0331878 0.0337022 0.0401595 0.0331878 0.0396567 0.0401595 0.0450367 0.0396567 0.0446781 0.0450367 0.0472341 0.0446781 0.0472009 0.0472341 0.0458196 0.0472009 0.0463283 0.0458196 0.0402548 0.0463283 0.0415186 0.0402548 0.030602 0.0415186 0.0327469 0.030602 0.0177714 0.0327469 0.0206949 0.0177714 0.00392839 0.0206949 0.00714321 0.00392839 -0.00689885 0.00714321 -0.00425587 -0.00689885 -0.00849713 -0.00425587 -0.00721584 -0.00849713 0.005491 -0.00721584 0.00549699 0.005491 0.0338695 0.00549699 0.0335888 0.0338695 0.0610225 0.0335888 0.0604766 0.0610225 0.0717956 0.0604766 0.0701191 0.0717956 0.0654167 0.0701191 0.0627229 0.0654167 0.0479816 0.0627229 0.0452786 0.0479816 0.0250399 0.0452786 0.0233885 0.0250399 5.98348e-17 0.0233885 5.72532e-17 5.72532e-17 -0.0233885 5.02449e-17 -0.0210548 -0.0233885 -0.0452786 -0.0210548 -0.0414011 -0.0452786 -0.0627229 -0.0414011 -0.0587782 -0.0627229 -0.0701191 -0.0587782 -0.0676277 -0.0701191 -0.0604766 -0.0676277 -0.0597041 -0.0604766 -0.0335888 -0.0597041 -0.0332187 -0.0335888 -0.00549699 -0.0332187 -0.0055371 -0.00549699 0.00721584 -0.0055371 0.00530459 0.00721584 0.00425587 0.00530459 0.000477488 0.00425587 -0.00714321 0.000477488 -0.0115688 -0.00714321 -0.0206949 -0.0115688 -0.0245833 -0.0206949 -0.0327469 -0.0245833 -0.0355085 -0.0327469 -0.0415186 -0.0355085 -0.0430836 -0.0415186 -0.0463283 -0.0430836 -0.0469032 -0.0463283 -0.0472009 -0.0469032 -0.0470833 -0.0472009 -0.0446781 -0.0470833 -0.0441566 -0.0446781 -0.0396567 -0.0441566 -0.038968 -0.0396567 -0.0331878 -0.038968 -0.0325019 -0.0331878 -0.0262572 -0.0325019 -0.0256774 -0.0262572 -0.0196102 -0.0256774 -0.0191804 -0.0196102 -0.0136684 -0.0191804 -0.0133876 -0.0136684 -0.00853889 -0.0133876 -0.00838013 -0.00853889 -0.00408229 -0.00838013 -0.00401333 -0.00408229 0 -0.00401333 0 0 0.00408229 0 0.00401333 0.00408229 0.00853889 0.00401333 0.00838013 0.00853889 0.0136684 0.00838013 0.0133876 0.0136684 0.0196102 0.0133876 0.0191804 0.0196102 0.0262572 0.0191804 0.0256774 0.0262572 0.0331878 0.0256774 0.0325019 0.0331878 0.0396567 0.0325019 0.038968 0.0396567 0.0446781 0.038968 0.0441566 0.0446781 0.0472009 0.0441566 0.0470833 0.0472009 0.0463283 0.0470833 0.0469032 0.0463283 0.0415186 0.0469032 0.0430836 0.0415186 0.0327469 0.0430836 0.0355085 0.0327469 0.0206949 0.0355085 0.0245833 0.0206949 0.00714321 0.0245833 0.0115688 0.00714321 -0.00425587 0.0115688 -0.000477488 -0.00425587 -0.00721584 -0.000477488 -0.00530459 -0.00721584 0.00549699 -0.00530459 0.0055371 0.00549699 0.0335888 0.0055371 0.0332187 0.0335888 0.0604766 0.0332187 0.0597041 0.0604766 0.0701191 0.0597041 0.0676277 0.0701191 0.0627229 0.0676277 0.0587782 0.0627229 0.0452786 0.0587782 0.0414011 0.0452786 0.0233885 0.0414011 0.0210548 0.0233885 5.72532e-17 0.0210548 5.02449e-17 5.02449e-17 -0.0210548 4.89088e-17 -0.0179991 -0.0210548 -0.0414011 -0.0179991 -0.0362093 -0.0414011 -0.0587782 -0.0362093 -0.0533164 -0.0587782 -0.0676277 -0.0533164 -0.0640463 -0.0676277 -0.0597041 -0.0640463 -0.0585939 -0.0597041 -0.0332187 -0.0585939 -0.0327652 -0.0332187 -0.0055371 -0.0327652 -0.00571852 -0.0055371 0.00530459 -0.00571852 0.00252154 0.00530459 0.000477488 0.00252154 -0.00463374 0.000477488 -0.0115688 -0.00463374 -0.0172373 -0.0115688 -0.0245833 -0.0172373 -0.029335 -0.0245833 -0.0355085 -0.029335 -0.0387364 -0.0355085 -0.0430836 -0.0387364 -0.0448092 -0.0430836 -0.0469032 -0.0448092 -0.0474378 -0.0469032 -0.0470833 -0.0474378 -0.0468132 -0.0470833 -0.0441566 -0.0468132 -0.0434387 -0.0441566 -0.038968 -0.0434387 -0.0380865 -0.038968 -0.0325019 -0.0380865 -0.0316563 -0.0325019 -0.0256774 -0.0316563 -0.0249838 -0.0256774 -0.0191804 -0.0249838 -0.0186824 -0.0191804 -0.0133876 -0.0186824 -0.0130742 -0.0133876 -0.00838013 -0.0130742 -0.00821069 -0.00838013 -0.00401333 -0.00821069 -0.00394276 -0.00401333 0 -0.00394276 0 0 0.00401333 0 0.00394276 0.00401333 0.00838013 0.00394276 0.00821069 0.00838013 0.0133876 0.00821069 0.0130742 0.0133876 0.0191804 0.0130742 0.0186824 0.0191804 0.0256774 0.0186824 0.0249838 0.0256774 0.0325019 0.0249838 0.0316563 0.0325019 0.038968 0.0316563 0.0380865 0.038968 0.0441566 0.0380865 0.0434387 0.0441566 0.0470833 0.0434387 0.0468132 0.0470833 0.0469032 0.0468132 0.0474378 0.0469032 0.0430836 0.0474378 0.0448092 0.0430836 0.0355085 0.0448092 0.0387364 0.0355085 0.0245833 0.0387364 0.029335 0.0245833 0.0115688 0.029335 0.0172373 0.0115688 -0.000477488 0.0172373 0.00463374 -0.000477488 -0.00530459 0.00463374 -0.00252154 -0.00530459 0.0055371 -0.00252154 0.00571852 0.0055371 0.0332187 0.00571852 0.0327652 0.0332187 0.0597041 0.0327652 0.0585939 0.0597041 0.0676277 0.0585939 0.0640463 0.0676277 0.0587782 0.0640463 0.0533164 0.0587782 0.0414011 0.0533164 0.0362093 0.0414011 0.0210548 0.0362093 0.0179991 0.0210548 5.02449e-17 0.0179991 4.89088e-17 4.89088e-17 -0.0179991 4.63572e-17 -0.0141904 -0.0179991 -0.0362093 -0.0141904 -0.0295447 -0.0362093 -0.0533164 -0.0295447 -0.0459753 -0.0533164 -0.0640463 -0.0459753 -0.0589508 -0.0640463 -0.0585939 -0.0589508 -0.0569486 -0.0585939 -0.0327652 -0.0569486 -0.0322325 -0.0327652 -0.00571852 -0.0322325 -0.00622661 -0.00571852 0.00252154 -0.00622661 -0.00151575 0.00252154 -0.00463374 -0.00151575 -0.0113678 -0.00463374 -0.0172373 -0.0113678 -0.024199 -0.0172373 -0.029335 -0.024199 -0.0348347 -0.029335 -0.0387364 -0.0348347 -0.0422624 -0.0387364 -0.0448092 -0.0422624 -0.0465388 -0.0448092 -0.0474378 -0.0465388 -0.0478101 -0.0474378 -0.0468132 -0.0478101 -0.0463085 -0.0468132 -0.0434387 -0.0463085 -0.0424794 -0.0434387 -0.0380865 -0.0424794 -0.0369983 -0.0380865 -0.0316563 -0.0369983 -0.0306598 -0.0316563 -0.0249838 -0.0306598 -0.0241994 -0.0249838 -0.0186824 -0.0241994 -0.0181448 -0.0186824 -0.0130742 -0.0181448 -0.0127557 -0.0130742 -0.00821069 -0.0127557 -0.00805139 -0.00821069 -0.00394276 -0.00805139 -0.00388175 -0.00394276 0 -0.00388175 0 0 0.00394276 0 0.00388175 0.00394276 0.00821069 0.00388175 0.00805139 0.00821069 0.0130742 0.00805139 0.0127557 0.0130742 0.0186824 0.0127557 0.0181448 0.0186824 0.0249838 0.0181448 0.0241994 0.0249838 0.0316563 0.0241994 0.0306598 0.0316563 0.0380865 0.0306598 0.0369983 0.0380865 0.0434387 0.0369983 0.0424794 0.0434387 0.0468132 0.0424794 0.0463085 0.0468132 0.0474378 0.0463085 0.0478101 0.0474378 0.0448092 0.0478101 0.0465388 0.0448092 0.0387364 0.0465388 0.0422624 0.0387364 0.029335 0.0422624 0.0348347 0.029335 0.0172373 0.0348347 0.024199 0.0172373 0.00463374 0.024199 0.0113678 0.00463374 -0.00252154 0.0113678 0.00151575 -0.00252154 0.00571852 0.00151575 0.00622661 0.00571852 0.0327652 0.00622661 0.0322325 0.0327652 0.0585939 0.0322325 0.0569486 0.0585939 0.0640463 0.0569486 0.0589508 0.0640463 0.0533164 0.0589508 0.0459753 0.0533164 0.0362093 0.0459753 0.0295447 0.0362093 0.0179991 0.0295447 0.0141904 0.0179991 4.89088e-17 0.0141904 4.63572e-17 4.63572e-17 -0.0141904 4.07289e-17 -0.0096317 -0.0141904 -0.0295447 -0.0096317 -0.021276 -0.0295447 -0.0459753 -0.021276 -0.0363223 -0.0459753 -0.0589508 -0.0363223 -0.0517367 -0.0589508 -0.0569486 -0.0517367 -0.0544468 -0.0569486 -0.0322325 -0.0544468 -0.0316244 -0.0322325 -0.00622661 -0.0316244 -0.00736399 -0.00622661 -0.00151575 -0.00736399 -0.00736675 -0.00151575 -0.0113678 -0.00736675 -0.0200901 -0.0113678 -0.024199 -0.0200901 -0.0324849 -0.024199 -0.0348347 -0.0324849 -0.0409315 -0.0348347 -0.0422624 -0.0409315 -0.0458964 -0.0422624 -0.0465388 -0.0458964 -0.0481007 -0.0465388 -0.0478101 -0.0481007 -0.0478851 -0.0478101 -0.0463085 -0.0478851 -0.0454761 -0.0463085 -0.0424794 -0.0454761 -0.041226 -0.0424794 -0.0369983 -0.041226 -0.0356854 -0.0369983 -0.0306598 -0.0356854 -0.0295206 -0.0306598 -0.0241994 -0.0295206 -0.0233491 -0.0241994 -0.0181448 -0.0233491 -0.0175996 -0.0181448 -0.0127557 -0.0175996 -0.0124628 -0.0127557 -0.00805139 -0.0124628 -0.00792588 -0.00805139 -0.00388175 -0.00792588 -0.00384295 -0.00388175 0 -0.00384295 0 0 0.00388175 0 0.00384295 0.00388175 0.00805139 0.00384295 0.00792588 0.00805139 0.0127557 0.00792588 0.0124628 0.0127557 0.0181448 0.0124628 0.0175996 0.0181448 0.0241994 0.0175996 0.0233491 0.0241994 0.0306598 0.0233491 0.0295206 0.0306598 0.0369983 0.0295206 0.0356854 0.0369983 0.0424794 0.0356854 0.041226 0.0424794 0.0463085 0.041226 0.0454761 0.0463085 0.0478101 0.0454761 0.0478851 0.0478101 0.0465388 0.0478851 0.0481007 0.0465388 0.0422624 0.0481007 0.0458964 0.0422624 0.0348347 0.0458964 0.0409315 0.0348347 0.024199 0.0409315 0.0324849 0.024199 0.0113678 0.0324849 0.0200901 0.0113678 0.00151575 0.0200901 0.00736675 0.00151575 0.00622661 0.00736675 0.00736399 0.00622661 0.0322325 0.00736399 0.0316244 0.0322325 0.0569486 0.0316244 0.0544468 0.0569486 0.0589508 0.0544468 0.0517367 0.0589508 0.0459753 0.0517367 0.0363223 0.0459753 0.0295447 0.0363223 0.021276 0.0295447 0.0141904 0.021276 0.0096317 0.0141904 4.63572e-17 0.0096317 4.07289e-17 4.07289e-17 -0.0096317 4.26211e-17 -0.00438071 -0.0096317 -0.021276 -0.00438071 -0.0113581 -0.021276 -0.0363223 -0.0113581 -0.0239038 -0.0363223 -0.0517367 -0.0239038 -0.0415721 -0.0517367 -0.0544468 -0.0415721 -0.0505715 -0.0544468 -0.0316244 -0.0505715 -0.0309459 -0.0316244 -0.00736399 -0.0309459 -0.00962376 -0.00736399 -0.00736675 -0.00962376 -0.0158212 -0.00736675 -0.0200901 -0.0158212 -0.0312027 -0.0200901 -0.0324849 -0.0312027 -0.0420532 -0.0324849 -0.0409315 -0.0420532 -0.0474207 -0.0409315 -0.0458964 -0.0474207 -0.0494244 -0.0458964 -0.0481007 -0.0494244 -0.0493099 -0.0481007 -0.0478851 -0.0493099 -0.0475174 -0.0478851 -0.0454761 -0.0475174 -0.0442145 -0.0454761 -0.041226 -0.0442145 -0.0396201 -0.041226 -0.0356854 -0.0396201 -0.0341277 -0.0356854 -0.0295206 -0.0341277 -0.0282487 -0.0295206 -0.0233491 -0.0282487 -0.0224617 -0.0233491 -0.0175996 -0.0224617 -0.0170835 -0.0175996 -0.0124628 -0.0170835 -0.0122306 -0.0124628 -0.00792588 -0.0122306 -0.00786068 -0.00792588 -0.00384295 -0.00786068 -0.0038405 -0.00384295 0 -0.0038405 0 0 0.00384295 0 0.0038405 0.00384295 0.00792588 0.0038405 0.00786068 0.00792588 0.0124628 0.00786068 0.0122306 0.0124628 0.0175996 0.0122306 0.0170835 0.0175996 0.0233491 0.0170835 0.0224617 0.0233491 0.0295206 0.0224617 0.0282487 0.0295206 0.0356854 0.0282487 0.0341277 0.0356854 0.041226 0.0341277 0.0396201 0.041226 0.0454761 0.0396201 0.0442145 0.0454761 0.0478851 0.0442145 0.0475174 0.0478851 0.0481007 0.0475174 0.0493099 0.0481007 0.0458964 0.0493099 0.0494244 0.0458964 0.0409315 0.0494244 0.0474207 0.0409315 0.0324849 0.0474207 0.0420532 0.0324849 0.0200901 0.0420532 0.0312027 0.0200901 0.00736675 0.0312027 0.0158212 0.00736675 0.00736399 0.0158212 0.00962376 0.00736399 0.0316244 0.00962376 0.0309459 0.0316244 0.0544468 0.0309459 0.0505715 0.0544468 0.0517367 0.0505715 0.0415721 0.0517367 0.0363223 0.0415721 0.0239038 0.0363223 0.021276 0.0239038 0.0113581 0.021276 0.0096317 0.0113581 0.00438071 0.0096317 4.07289e-17 0.00438071 4.26211e-17 4.26211e-17 -0.00438071 4.06527e-17 0.00144379 -0.00438071 -0.0113581 0.00144379 9.87015e-05 -0.0113581 -0.0239038 9.87015e-05 -0.00834331 -0.0239038 -0.0415721 -0.00834331 -0.0273422 -0.0415721 -0.0505715 -0.0273422 -0.0444782 -0.0505715 -0.0309459 -0.0444782 -0.030203 -0.0309459 -0.00962376 -0.030203 -0.0138219 -0.00962376 -0.0158212 -0.0138219 -0.0279661 -0.0158212 -0.0312027 -0.0279661 -0.0450565 -0.0312027 -0.0420532 -0.0450565 -0.0527232 -0.0420532 -0.0474207 -0.0527232 -0.0540365 -0.0474207 -0.0494244 -0.0540365 -0.052613 -0.0494244 -0.0493099 -0.052613 -0.0499698 -0.0493099 -0.0475174 -0.0499698 -0.0465523 -0.0475174 -0.0442145 -0.0465523 -0.0424152 -0.0442145 -0.0396201 -0.0424152 -0.0376001 -0.0396201 -0.0341277 -0.0376001 -0.0323059 -0.0341277 -0.0282487 -0.0323059 -0.0268578 -0.0282487 -0.0224617 -0.0268578 -0.0215718 -0.0224617 -0.0170835 -0.0215718 -0.0166389 -0.0170835 -0.0122306 -0.0166389 -0.0120987 -0.0122306 -0.00786068 -0.0120987 -0.00788534 -0.00786068 -0.0038405 -0.00788534 -0.00388995 -0.0038405 0 -0.00388995 0 0 0.0038405 0 0.00388995 0.0038405 0.00786068 0.00388995 0.00788534 0.00786068 0.0122306 0.00788534 0.0120987 0.0122306 0.0170835 0.0120987 0.0166389 0.0170835 0.0224617 0.0166389 0.0215718 0.0224617 0.0282487 0.0215718 0.0268578 0.0282487 0.0341277 0.0268578 0.0323059 0.0341277 0.0396201 0.0323059 0.0376001 0.0396201 0.0442145 0.0376001 0.0424152 0.0442145 0.0475174 0.0424152 0.0465523 0.0475174 0.0493099 0.0465523 0.0499698 0.0493099 0.0494244 0.0499698 0.052613 0.0494244 0.0474207 0.052613 0.0540365 0.0474207 0.0420532 0.0540365 0.0527232 0.0420532 0.0312027 0.0527232 0.0450565 0.0312027 0.0158212 0.0450565 0.0279661 0.0158212 0.00962376 0.0279661 0.0138219 0.00962376 0.0309459 0.0138219 0.030203 0.0309459 0.0505715 0.030203 0.0444782 0.0505715 0.0415721 0.0444782 0.0273422 0.0415721 0.0239038 0.0273422 0.00834331 0.0239038 0.0113581 0.00834331 -9.87015e-05 0.0113581 0.00438071 -9.87015e-05 -0.00144379 0.00438071 4.26211e-17 -0.00144379 4.06527e-17 4.06527e-17 0.00144379 3.89177e-17 0.00768192 0.00144379 9.87015e-05 0.00768192 0.012773 9.87015e-05 -0.00834331 0.012773 0.0104644 -0.00834331 -0.0273422 0.0104644 -0.0076119 -0.0273422 -0.0444782 -0.0076119 -0.0347518 -0.0444782 -0.030203 -0.0347518 -0.0294031 -0.030203 -0.0138219 -0.0294031 -0.0213437 -0.0138219 -0.0279661 -0.0213437 -0.045242 -0.0279661 -0.0450565 -0.045242 -0.0617656 -0.0450565 -0.0527232 -0.0617656 -0.064116 -0.0527232 -0.0540365 -0.064116 -0.0604685 -0.0540365 -0.052613 -0.0604685 -0.0552154 -0.052613 -0.0499698 -0.0552154 -0.0498735 -0.0499698 -0.0465523 -0.0498735 -0.0448276 -0.0465523 -0.0424152 -0.0448276 -0.039964 -0.0424152 -0.0376001 -0.039964 -0.035102 -0.0376001 -0.0323059 -0.035102 -0.030203 -0.0323059 -0.0268578 -0.030203 -0.0253678 -0.0268578 -0.0215718 -0.0253678 -0.0207215 -0.0215718 -0.0166389 -0.0207215 -0.0163151 -0.0166389 -0.0120987 -0.0163151 -0.0121116 -0.0120987 -0.00788534 -0.0121116 -0.00803244 -0.00788534 -0.00388995 -0.00803244 -0.00400824 -0.00388995 0 -0.00400824 0 0 0.00388995 0 0.00400824 0.00388995 0.00788534 0.00400824 0.00803244 0.00788534 0.0120987 0.00803244 0.0121116 0.0120987 0.0166389 0.0121116 0.0163151 0.0166389 0.0215718 0.0163151 0.0207215 0.0215718 0.0268578 0.0207215 0.0253678 0.0268578 0.0323059 0.0253678 0.030203 0.0323059 0.0376001 0.030203 0.035102 0.0376001 0.0424152 0.035102 0.039964 0.0424152 0.0465523 0.039964 0.0448276 0.0465523 0.0499698 0.0448276 0.0498735 0.0499698 0.052613 0.0498735 0.0552154 0.052613 0.0540365 0.0552154 0.0604685 0.0540365 0.0527232 0.0604685 0.064116 0.0527232 0.0450565 0.064116 0.0617656 0.0450565 0.0279661 0.0617656 0.045242 0.0279661 0.0138219 0.045242 0.0213437 0.0138219 0.030203 0.0213437 0.0294031 0.030203 0.0444782 0.029403