# vtk DataFile Version 3.0
#This file was generated by the deal.II library on 2017/9/27 at 13:18:47
ASCII
DATASET UNSTRUCTURED_GRID

POINTS 2688 double
-5.63207 0 0
-5.3974 0 0
-5.63207 0.0714286 0
-5.3974 0.0714286 0
-5.3974 0 0
-5.16273 0 0
-5.3974 0.0714286 0
-5.16273 0.0714286 0
-5.16273 0 0
-4.92806 0 0
-5.16273 0.0714286 0
-4.92806 0.0714286 0
-4.92806 0 0
-4.69339 0 0
-4.92806 0.0714286 0
-4.69339 0.0714286 0
-4.69339 0 0
-4.45872 0 0
-4.69339 0.0714286 0
-4.45872 0.0714286 0
-4.45872 0 0
-4.22405 0 0
-4.45872 0.0714286 0
-4.22405 0.0714286 0
-4.22405 0 0
-3.98938 0 0
-4.22405 0.0714286 0
-3.98938 0.0714286 0
-3.98938 0 0
-3.75472 0 0
-3.98938 0.0714286 0
-3.75472 0.0714286 0
-3.75472 0 0
-3.52005 0 0
-3.75472 0.0714286 0
-3.52005 0.0714286 0
-3.52005 0 0
-3.28538 0 0
-3.52005 0.0714286 0
-3.28538 0.0714286 0
-3.28538 0 0
-3.05071 0 0
-3.28538 0.0714286 0
-3.05071 0.0714286 0
-3.05071 0 0
-2.81604 0 0
-3.05071 0.0714286 0
-2.81604 0.0714286 0
-2.81604 0 0
-2.58137 0 0
-2.81604 0.0714286 0
-2.58137 0.0714286 0
-2.58137 0 0
-2.3467 0 0
-2.58137 0.0714286 0
-2.3467 0.0714286 0
-2.3467 0 0
-2.11203 0 0
-2.3467 0.0714286 0
-2.11203 0.0714286 0
-2.11203 0 0
-1.87736 0 0
-2.11203 0.0714286 0
-1.87736 0.0714286 0
-1.87736 0 0
-1.64269 0 0
-1.87736 0.0714286 0
-1.64269 0.0714286 0
-1.64269 0 0
-1.40802 0 0
-1.64269 0.0714286 0
-1.40802 0.0714286 0
-1.40802 0 0
-1.17335 0 0
-1.40802 0.0714286 0
-1.17335 0.0714286 0
-1.17335 0 0
-0.938679 0 0
-1.17335 0.0714286 0
-0.938679 0.0714286 0
-0.938679 0 0
-0.704009 0 0
-0.938679 0.0714286 0
-0.704009 0.0714286 0
-0.704009 0 0
-0.469339 0 0
-0.704009 0.0714286 0
-0.469339 0.0714286 0
-0.469339 0 0
-0.23467 0 0
-0.469339 0.0714286 0
-0.23467 0.0714286 0
-0.23467 0 0
0 0 0
-0.23467 0.0714286 0
0 0.0714286 0
0 0 0
0.23467 0 0
0 0.0714286 0
0.23467 0.0714286 0
0.23467 0 0
0.469339 0 0
0.23467 0.0714286 0
0.469339 0.0714286 0
0.469339 0 0
0.704009 0 0
0.469339 0.0714286 0
0.704009 0.0714286 0
0.704009 0 0
0.938679 0 0
0.704009 0.0714286 0
0.938679 0.0714286 0
0.938679 0 0
1.17335 0 0
0.938679 0.0714286 0
1.17335 0.0714286 0
1.17335 0 0
1.40802 0 0
1.17335 0.0714286 0
1.40802 0.0714286 0
1.40802 0 0
1.64269 0 0
1.40802 0.0714286 0
1.64269 0.0714286 0
1.64269 0 0
1.87736 0 0
1.64269 0.0714286 0
1.87736 0.0714286 0
1.87736 0 0
2.11203 0 0
1.87736 0.0714286 0
2.11203 0.0714286 0
2.11203 0 0
2.3467 0 0
2.11203 0.0714286 0
2.3467 0.0714286 0
2.3467 0 0
2.58137 0 0
2.3467 0.0714286 0
2.58137 0.0714286 0
2.58137 0 0
2.81604 0 0
2.58137 0.0714286 0
2.81604 0.0714286 0
2.81604 0 0
3.05071 0 0
2.81604 0.0714286 0
3.05071 0.0714286 0
3.05071 0 0
3.28538 0 0
3.05071 0.0714286 0
3.28538 0.0714286 0
3.28538 0 0
3.52005 0 0
3.28538 0.0714286 0
3.52005 0.0714286 0
3.52005 0 0
3.75472 0 0
3.52005 0.0714286 0
3.75472 0.0714286 0
3.75472 0 0
3.98938 0 0
3.75472 0.0714286 0
3.98938 0.0714286 0
3.98938 0 0
4.22405 0 0
3.98938 0.0714286 0
4.22405 0.0714286 0
4.22405 0 0
4.45872 0 0
4.22405 0.0714286 0
4.45872 0.0714286 0
4.45872 0 0
4.69339 0 0
4.45872 0.0714286 0
4.69339 0.0714286 0
4.69339 0 0
4.92806 0 0
4.69339 0.0714286 0
4.92806 0.0714286 0
4.92806 0 0
5.16273 0 0
4.92806 0.0714286 0
5.16273 0.0714286 0
5.16273 0 0
5.3974 0 0
5.16273 0.0714286 0
5.3974 0.0714286 0
5.3974 0 0
5.63207 0 0
5.3974 0.0714286 0
5.63207 0.0714286 0
-5.63207 0.0714286 0
-5.3974 0.0714286 0
-5.63207 0.142857 0
-5.3974 0.142857 0
-5.3974 0.0714286 0
-5.16273 0.0714286 0
-5.3974 0.142857 0
-5.16273 0.142857 0
-5.16273 0.0714286 0
-4.92806 0.0714286 0
-5.16273 0.142857 0
-4.92806 0.142857 0
-4.92806 0.0714286 0
-4.69339 0.0714286 0
-4.92806 0.142857 0
-4.69339 0.142857 0
-4.69339 0.0714286 0
-4.45872 0.0714286 0
-4.69339 0.142857 0
-4.45872 0.142857 0
-4.45872 0.0714286 0
-4.22405 0.0714286 0
-4.45872 0.142857 0
-4.22405 0.142857 0
-4.22405 0.0714286 0
-3.98938 0.0714286 0
-4.22405 0.142857 0
-3.98938 0.142857 0
-3.98938 0.0714286 0
-3.75472 0.0714286 0
-3.98938 0.142857 0
-3.75472 0.142857 0
-3.75472 0.0714286 0
-3.52005 0.0714286 0
-3.75472 0.142857 0
-3.52005 0.142857 0
-3.52005 0.0714286 0
-3.28538 0.0714286 0
-3.52005 0.142857 0
-3.28538 0.142857 0
-3.28538 0.0714286 0
-3.05071 0.0714286 0
-3.28538 0.142857 0
-3.05071 0.142857 0
-3.05071 0.0714286 0
-2.81604 0.0714286 0
-3.05071 0.142857 0
-2.81604 0.142857 0
-2.81604 0.0714286 0
-2.58137 0.0714286 0
-2.81604 0.142857 0
-2.58137 0.142857 0
-2.58137 0.0714286 0
-2.3467 0.0714286 0
-2.58137 0.142857 0
-2.3467 0.142857 0
-2.3467 0.0714286 0
-2.11203 0.0714286 0
-2.3467 0.142857 0
-2.11203 0.142857 0
-2.11203 0.0714286 0
-1.87736 0.0714286 0
-2.11203 0.142857 0
-1.87736 0.142857 0
-1.87736 0.0714286 0
-1.64269 0.0714286 0
-1.87736 0.142857 0
-1.64269 0.142857 0
-1.64269 0.0714286 0
-1.40802 0.0714286 0
-1.64269 0.142857 0
-1.40802 0.142857 0
-1.40802 0.0714286 0
-1.17335 0.0714286 0
-1.40802 0.142857 0
-1.17335 0.142857 0
-1.17335 0.0714286 0
-0.938679 0.0714286 0
-1.17335 0.142857 0
-0.938679 0.142857 0
-0.938679 0.0714286 0
-0.704009 0.0714286 0
-0.938679 0.142857 0
-0.704009 0.142857 0
-0.704009 0.0714286 0
-0.469339 0.0714286 0
-0.704009 0.142857 0
-0.469339 0.142857 0
-0.469339 0.0714286 0
-0.23467 0.0714286 0
-0.469339 0.142857 0
-0.23467 0.142857 0
-0.23467 0.0714286 0
0 0.0714286 0
-0.23467 0.142857 0
0 0.142857 0
0 0.0714286 0
0.23467 0.0714286 0
0 0.142857 0
0.23467 0.142857 0
0.23467 0.0714286 0
0.469339 0.0714286 0
0.23467 0.142857 0
0.469339 0.142857 0
0.469339 0.0714286 0
0.704009 0.0714286 0
0.469339 0.142857 0
0.704009 0.142857 0
0.704009 0.0714286 0
0.938679 0.0714286 0
0.704009 0.142857 0
0.938679 0.142857 0
0.938679 0.0714286 0
1.17335 0.0714286 0
0.938679 0.142857 0
1.17335 0.142857 0
1.17335 0.0714286 0
1.40802 0.0714286 0
1.17335 0.142857 0
1.40802 0.142857 0
1.40802 0.0714286 0
1.64269 0.0714286 0
1.40802 0.142857 0
1.64269 0.142857 0
1.64269 0.0714286 0
1.87736 0.0714286 0
1.64269 0.142857 0
1.87736 0.142857 0
1.87736 0.0714286 0
2.11203 0.0714286 0
1.87736 0.142857 0
2.11203 0.142857 0
2.11203 0.0714286 0
2.3467 0.0714286 0
2.11203 0.142857 0
2.3467 0.142857 0
2.3467 0.0714286 0
2.58137 0.0714286 0
2.3467 0.142857 0
2.58137 0.142857 0
2.58137 0.0714286 0
2.81604 0.0714286 0
2.58137 0.142857 0
2.81604 0.142857 0
2.81604 0.0714286 0
3.05071 0.0714286 0
2.81604 0.142857 0
3.05071 0.142857 0
3.05071 0.0714286 0
3.28538 0.0714286 0
3.05071 0.142857 0
3.28538 0.142857 0
3.28538 0.0714286 0
3.52005 0.0714286 0
3.28538 0.142857 0
3.52005 0.142857 0
3.52005 0.0714286 0
3.75472 0.0714286 0
3.52005 0.142857 0
3.75472 0.142857 0
3.75472 0.0714286 0
3.98938 0.0714286 0
3.75472 0.142857 0
3.98938 0.142857 0
3.98938 0.0714286 0
4.22405 0.0714286 0
3.98938 0.142857 0
4.22405 0.142857 0
4.22405 0.0714286 0
4.45872 0.0714286 0
4.22405 0.142857 0
4.45872 0.142857 0
4.45872 0.0714286 0
4.69339 0.0714286 0
4.45872 0.142857 0
4.69339 0.142857 0
4.69339 0.0714286 0
4.92806 0.0714286 0
4.69339 0.142857 0
4.92806 0.142857 0
4.92806 0.0714286 0
5.16273 0.0714286 0
4.92806 0.142857 0
5.16273 0.142857 0
5.16273 0.0714286 0
5.3974 0.0714286 0
5.16273 0.142857 0
5.3974 0.142857 0
5.3974 0.0714286 0
5.63207 0.0714286 0
5.3974 0.142857 0
5.63207 0.142857 0
-5.63207 0.142857 0
-5.3974 0.142857 0
-5.63207 0.214286 0
-5.3974 0.214286 0
-5.3974 0.142857 0
-5.16273 0.142857 0
-5.3974 0.214286 0
-5.16273 0.214286 0
-5.16273 0.142857 0
-4.92806 0.142857 0
-5.16273 0.214286 0
-4.92806 0.214286 0
-4.92806 0.142857 0
-4.69339 0.142857 0
-4.92806 0.214286 0
-4.69339 0.214286 0
-4.69339 0.142857 0
-4.45872 0.142857 0
-4.69339 0.214286 0
-4.45872 0.214286 0
-4.45872 0.142857 0
-4.22405 0.142857 0
-4.45872 0.214286 0
-4.22405 0.214286 0
-4.22405 0.142857 0
-3.98938 0.142857 0
-4.22405 0.214286 0
-3.98938 0.214286 0
-3.98938 0.142857 0
-3.75472 0.142857 0
-3.98938 0.214286 0
-3.75472 0.214286 0
-3.75472 0.142857 0
-3.52005 0.142857 0
-3.75472 0.214286 0
-3.52005 0.214286 0
-3.52005 0.142857 0
-3.28538 0.142857 0
-3.52005 0.214286 0
-3.28538 0.214286 0
-3.28538 0.142857 0
-3.05071 0.142857 0
-3.28538 0.214286 0
-3.05071 0.214286 0
-3.05071 0.142857 0
-2.81604 0.142857 0
-3.05071 0.214286 0
-2.81604 0.214286 0
-2.81604 0.142857 0
-2.58137 0.142857 0
-2.81604 0.214286 0
-2.58137 0.214286 0
-2.58137 0.142857 0
-2.3467 0.142857 0
-2.58137 0.214286 0
-2.3467 0.214286 0
-2.3467 0.142857 0
-2.11203 0.142857 0
-2.3467 0.214286 0
-2.11203 0.214286 0
-2.11203 0.142857 0
-1.87736 0.142857 0
-2.11203 0.214286 0
-1.87736 0.214286 0
-1.87736 0.142857 0
-1.64269 0.142857 0
-1.87736 0.214286 0
-1.64269 0.214286 0
-1.64269 0.142857 0
-1.40802 0.142857 0
-1.64269 0.214286 0
-1.40802 0.214286 0
-1.40802 0.142857 0
-1.17335 0.142857 0
-1.40802 0.214286 0
-1.17335 0.214286 0
-1.17335 0.142857 0
-0.938679 0.142857 0
-1.17335 0.214286 0
-0.938679 0.214286 0
-0.938679 0.142857 0
-0.704009 0.142857 0
-0.938679 0.214286 0
-0.704009 0.214286 0
-0.704009 0.142857 0
-0.469339 0.142857 0
-0.704009 0.214286 0
-0.469339 0.214286 0
-0.469339 0.142857 0
-0.23467 0.142857 0
-0.469339 0.214286 0
-0.23467 0.214286 0
-0.23467 0.142857 0
0 0.142857 0
-0.23467 0.214286 0
0 0.214286 0
0 0.142857 0
0.23467 0.142857 0
0 0.214286 0
0.23467 0.214286 0
0.23467 0.142857 0
0.469339 0.142857 0
0.23467 0.214286 0
0.469339 0.214286 0
0.469339 0.142857 0
0.704009 0.142857 0
0.469339 0.214286 0
0.704009 0.214286 0
0.704009 0.142857 0
0.938679 0.142857 0
0.704009 0.214286 0
0.938679 0.214286 0
0.938679 0.142857 0
1.17335 0.142857 0
0.938679 0.214286 0
1.17335 0.214286 0
1.17335 0.142857 0
1.40802 0.142857 0
1.17335 0.214286 0
1.40802 0.214286 0
1.40802 0.142857 0
1.64269 0.142857 0
1.40802 0.214286 0
1.64269 0.214286 0
1.64269 0.142857 0
1.87736 0.142857 0
1.64269 0.214286 0
1.87736 0.214286 0
1.87736 0.142857 0
2.11203 0.142857 0
1.87736 0.214286 0
2.11203 0.214286 0
2.11203 0.142857 0
2.3467 0.142857 0
2.11203 0.214286 0
2.3467 0.214286 0
2.3467 0.142857 0
2.58137 0.142857 0
2.3467 0.214286 0
2.58137 0.214286 0
2.58137 0.142857 0
2.81604 0.142857 0
2.58137 0.214286 0
2.81604 0.214286 0
2.81604 0.142857 0
3.05071 0.142857 0
2.81604 0.214286 0
[...]
POINT_DATA 2688
SCALARS x1_displacement double 1
LOOKUP_TABLE default
2.2391e-16 -0.0261378 1.79814e-16 -0.0256357 -0.0261378 -0.0511546 -0.0256357 -0.0503119 -0.0511546 -0.0721404 -0.0503119 -0.0712596 -0.0721404 -0.083235 -0.0712596 -0.082628 -0.083235 -0.077073 -0.082628 -0.0768262 -0.077073 -0.0532103 -0.0768262 -0.0531507 -0.0532103 -0.0283669 -0.0531507 -0.028502 -0.0283669 -0.0195709 -0.028502 -0.0201032 -0.0195709 -0.0264486 -0.0201032 -0.0273373 -0.0264486 -0.0409744 -0.0273373 -0.0419609 -0.0409744 -0.0561858 -0.0419609 -0.0570262 -0.0561858 -0.0680716 -0.0570262 -0.068656 -0.0680716 -0.0750339 -0.068656 -0.0753665 -0.0750339 -0.0769906 -0.0753665 -0.0771285 -0.0769906 -0.0746639 -0.0771285 -0.0746735 -0.0746639 -0.0691128 -0.0746735 -0.069051 -0.0691128 -0.0614379 -0.069051 -0.0613466 -0.0614379 -0.0525999 -0.0613466 -0.0525062 -0.0525999 -0.0433255 -0.0525062 -0.0432444 -0.0433255 -0.0340858 -0.0432444 -0.0340234 -0.0340858 -0.0251233 -0.0340234 -0.02508 -0.0251233 -0.0165036 -0.02508 -0.0164772 -0.0165036 -0.00817169 -0.0164772 -0.00815932 -0.00817169 0 -0.00815932 0 0 0.00817169 0 0.00815932 0.00817169 0.0165036 0.00815932 0.0164772 0.0165036 0.0251233 0.0164772 0.02508 0.0251233 0.0340858 0.02508 0.0340234 0.0340858 0.0433255 0.0340234 0.0432444 0.0433255 0.0525999 0.0432444 0.0525062 0.0525999 0.0614379 0.0525062 0.0613466 0.0614379 0.0691128 0.0613466 0.069051 0.0691128 0.0746639 0.069051 0.0746735 0.0746639 0.0769906 0.0746735 0.0771285 0.0769906 0.0750339 0.0771285 0.0753665 0.0750339 0.0680716 0.0753665 0.068656 0.0680716 0.0561858 0.068656 0.0570262 0.0561858 0.0409744 0.0570262 0.0419609 0.0409744 0.0264486 0.0419609 0.0273373 0.0264486 0.0195709 0.0273373 0.0201032 0.0195709 0.0283669 0.0201032 0.028502 0.0283669 0.0532103 0.028502 0.0531507 0.0532103 0.077073 0.0531507 0.0768262 0.077073 0.083235 0.0768262 0.082628 0.083235 0.0721404 0.082628 0.0712596 0.0721404 0.0511546 0.0712596 0.0503119 0.0511546 0.0261378 0.0503119 0.0256357 0.0261378 2.2391e-16 0.0256357 1.79814e-16 1.79814e-16 -0.0256357 1.28574e-16 -0.0241848 -0.0256357 -0.0503119 -0.0241848 -0.047852 -0.0503119 -0.0712596 -0.047852 -0.0686567 -0.0712596 -0.082628 -0.0686567 -0.0808383 -0.082628 -0.0768262 -0.0808383 -0.0761476 -0.0768262 -0.0531507 -0.0761476 -0.052987 -0.0531507 -0.028502 -0.052987 -0.0288628 -0.028502 -0.0201032 -0.0288628 -0.0216605 -0.0201032 -0.0273373 -0.0216605 -0.0299238 -0.0273373 -0.0419609 -0.0299238 -0.044777 -0.0419609 -0.0570262 -0.044777 -0.0593803 -0.0570262 -0.068656 -0.0593803 -0.0702667 -0.068656 -0.0753665 -0.0702667 -0.0762677 -0.0753665 -0.0771285 -0.0762677 -0.0774898 -0.0771285 -0.0746735 -0.0774898 -0.0746833 -0.0746735 -0.069051 -0.0746833 -0.0688675 -0.069051 -0.0613466 -0.0688675 -0.0610853 -0.0613466 -0.0525062 -0.0610853 -0.0522416 -0.0525062 -0.0432444 -0.0522416 -0.0430171 -0.0432444 -0.0340234 -0.0430171 -0.0338494 -0.0340234 -0.02508 -0.0338494 -0.0249599 -0.02508 -0.0164772 -0.0249599 -0.0164041 -0.0164772 -0.00815932 -0.0164041 -0.00812531 -0.00815932 0 -0.00812531 0 0 0.00815932 0 0.00812531 0.00815932 0.0164772 0.00812531 0.0164041 0.0164772 0.02508 0.0164041 0.0249599 0.02508 0.0340234 0.0249599 0.0338494 0.0340234 0.0432444 0.0338494 0.0430171 0.0432444 0.0525062 0.0430171 0.0522416 0.0525062 0.0613466 0.0522416 0.0610853 0.0613466 0.069051 0.0610853 0.0688675 0.069051 0.0746735 0.0688675 0.0746833 0.0746735 0.0771285 0.0746833 0.0774898 0.0771285 0.0753665 0.0774898 0.0762677 0.0753665 0.068656 0.0762677 0.0702667 0.068656 0.0570262 0.0702667 0.0593803 0.0570262 0.0419609 0.0593803 0.044777 0.0419609 0.0273373 0.044777 0.0299238 0.0273373 0.0201032 0.0299238 0.0216605 0.0201032 0.028502 0.0216605 0.0288628 0.028502 0.0531507 0.0288628 0.052987 0.0531507 0.0768262 0.052987 0.0761476 0.0768262 0.082628 0.0761476 0.0808383 0.082628 0.0712596 0.0808383 0.0686567 0.0712596 0.0503119 0.0686567 0.047852 0.0503119 0.0256357 0.047852 0.0241848 0.0256357 1.79814e-16 0.0241848 1.28574e-16 1.28574e-16 -0.0241848 1.11701e-16 -0.0218621 -0.0241848 -0.047852 -0.0218621 -0.0438675 -0.047852 -0.0686567 -0.0438675 -0.0643812 -0.0686567 -0.0808383 -0.0643812 -0.0778893 -0.0808383 -0.0761476 -0.0778893 -0.0750865 -0.0761476 -0.052987 -0.0750865 -0.0527347 -0.052987 -0.0288628 -0.0527347 -0.0294229 -0.0288628 -0.0216605 -0.0294229 -0.0242207 -0.0216605 -0.0299238 -0.0242207 -0.0341262 -0.0299238 -0.044777 -0.0341262 -0.049253 -0.044777 -0.0593803 -0.049253 -0.0630449 -0.0593803 -0.0702667 -0.0630449 -0.0727316 -0.0702667 -0.0762677 -0.0727316 -0.077625 -0.0762677 -0.0774898 -0.077625 -0.078018 -0.0774898 -0.0746833 -0.078018 -0.0746767 -0.0746833 -0.0688675 -0.0746767 -0.06857 -0.0688675 -0.0610853 -0.06857 -0.0606736 -0.0610853 -0.0522416 -0.0606736 -0.0518289 -0.0522416 -0.0430171 -0.0518289 -0.042665 -0.0430171 -0.0338494 -0.042665 -0.0335812 -0.0338494 -0.0249599 -0.0335812 -0.0247756 -0.0249599 -0.0164041 -0.0247756 -0.0162925 -0.0164041 -0.00812531 -0.0162925 -0.00807352 -0.00812531 0 -0.00807352 0 0 0.00812531 0 0.00807352 0.00812531 0.0164041 0.00807352 0.0162925 0.0164041 0.0249599 0.0162925 0.0247756 0.0249599 0.0338494 0.0247756 0.0335812 0.0338494 0.0430171 0.0335812 0.042665 0.0430171 0.0522416 0.042665 0.0518289 0.0522416 0.0610853 0.0518289 0.0606736 0.0610853 0.0688675 0.0606736 0.06857 0.0688675 0.0746833 0.06857 0.0746767 0.0746833 0.0774898 0.0746767 0.078018 0.0774898 0.0762677 0.078018 0.077625 0.0762677 0.0702667 0.077625 0.0727316 0.0702667 0.0593803 0.0727316 0.0630449 0.0593803 0.044777 0.0630449 0.049253 0.044777 0.0299238 0.049253 0.0341262 0.0299238 0.0216605 0.0341262 0.0242207 0.0216605 0.0288628 0.0242207 0.0294229 0.0288628 0.052987 0.0294229 0.0527347 0.052987 0.0761476 0.0527347 0.0750865 0.0761476 0.0808383 0.0750865 0.0778893 0.0808383 0.0686567 0.0778893 0.0643812 0.0686567 0.047852 0.0643812 0.0438675 0.047852 0.0241848 0.0438675 0.0218621 0.0241848 1.28574e-16 0.0218621 1.11701e-16 1.11701e-16 -0.0218621 1.03062e-16 -0.0187178 -0.0218621 -0.0438675 -0.0187178 -0.0383718 -0.0438675 -0.0643812 -0.0383718 -0.0583276 -0.0643812 -0.0778893 -0.0583276 -0.0736206 -0.0778893 -0.0750865 -0.0736206 -0.073584 -0.0750865 -0.0527347 -0.073584 -0.0524049 -0.0527347 -0.0294229 -0.0524049 -0.0302518 -0.0294229 -0.0242207 -0.0302518 -0.0279308 -0.0242207 -0.0341262 -0.0279308 -0.0400003 -0.0341262 -0.049253 -0.0400003 -0.0552813 -0.049253 -0.0630449 -0.0552813 -0.0678251 -0.0630449 -0.0727316 -0.0678251 -0.0758641 -0.0727316 -0.077625 -0.0758641 -0.0793042 -0.077625 -0.078018 -0.0793042 -0.0786343 -0.078018 -0.0746767 -0.0786343 -0.0746183 -0.0746767 -0.06857 -0.0746183 -0.0681516 -0.06857 -0.0606736 -0.0681516 -0.0601211 -0.0606736 -0.0518289 -0.0601211 -0.0512858 -0.0518289 -0.042665 -0.0512858 -0.0422071 -0.042665 -0.0335812 -0.0422071 -0.0332361 -0.0335812 -0.0247756 -0.0332361 -0.0245407 -0.0247756 -0.0162925 -0.0245407 -0.0161514 -0.0162925 -0.00807352 -0.0161514 -0.00800841 -0.00807352 0 -0.00800841 0 0 0.00807352 0 0.00800841 0.00807352 0.0162925 0.00800841 0.0161514 0.0162925 0.0247756 0.0161514 0.0245407 0.0247756 0.0335812 0.0245407 0.0332361 0.0335812 0.042665 0.0332361 0.0422071 0.042665 0.0518289 0.0422071 0.0512858 0.0518289 0.0606736 0.0512858 0.0601211 0.0606736 0.06857 0.0601211 0.0681516 0.06857 0.0746767 0.0681516 0.0746183 0.0746767 0.078018 0.0746183 0.0786343 0.078018 0.077625 0.0786343 0.0793042 0.077625 0.0727316 0.0793042 0.0758641 0.0727316 0.0630449 0.0758641 0.0678251 0.0630449 0.049253 0.0678251 0.0552813 0.049253 0.0341262 0.0552813 0.0400003 0.0341262 0.0242207 0.0400003 0.0279308 0.0242207 0.0294229 0.0279308 0.0302518 0.0294229 0.0527347 0.0302518 0.0524049 0.0527347 0.0750865 0.0524049 0.073584 0.0750865 0.0778893 0.073584 0.0736206 0.0778893 0.0643812 0.0736206 0.0583276 0.0643812 0.0438675 0.0583276 0.0383718 0.0438675 0.0218621 0.0383718 0.0187178 0.0218621 1.11701e-16 0.0187178 1.03062e-16 1.03062e-16 -0.0187178 9.87467e-17 -0.0148001 -0.0187178 -0.0383718 -0.0148001 -0.0313393 -0.0383718 -0.0583276 -0.0313393 -0.0502665 -0.0583276 -0.0736206 -0.0502665 -0.0676886 -0.0736206 -0.073584 -0.0676886 -0.0714712 -0.073584 -0.0524049 -0.0714712 -0.0520061 -0.0524049 -0.0302518 -0.0520061 -0.0315194 -0.0302518 -0.0279308 -0.0315194 -0.0331096 -0.0279308 -0.0400003 -0.0331096 -0.047718 -0.0400003 -0.0552813 -0.047718 -0.0627857 -0.0552813 -0.0678251 -0.0627857 -0.073519 -0.0678251 -0.0758641 -0.073519 -0.0794629 -0.0758641 -0.0793042 -0.0794629 -0.0811553 -0.0793042 -0.0786343 -0.0811553 -0.0792446 -0.0786343 -0.0746183 -0.0792446 -0.0744589 -0.0746183 -0.0681516 -0.0744589 -0.0675953 -0.0681516 -0.0601211 -0.0675953 -0.0594311 -0.0601211 -0.0512858 -0.0594311 -0.0506258 -0.0512858 -0.0422071 -0.0506258 -0.0416612 -0.0422071 -0.0332361 -0.0416612 -0.0328312 -0.0332361 -0.0245407 -0.0328312 -0.0242692 -0.0245407 -0.0161514 -0.0242692 -0.0159905 -0.0161514 -0.00800841 -0.0159905 -0.00793491 -0.00800841 0 -0.00793491 0 0 0.00800841 0 0.00793491 0.00800841 0.0161514 0.00793491 0.0159905 0.0161514 0.0245407 0.0159905 0.0242692 0.0245407 0.0332361 0.0242692 0.0328312 0.0332361 0.0422071 0.0328312 0.0416612 0.0422071 0.0512858 0.0416612 0.0506258 0.0512858 0.0601211 0.0506258 0.0594311 0.0601211 0.0681516 0.0594311 0.0675953 0.0681516 0.0746183 0.0675953 0.0744589 0.0746183 0.0786343 0.0744589 0.0792446 0.0786343 0.0793042 0.0792446 0.0811553 0.0793042 0.0758641 0.0811553 0.0794629 0.0758641 0.0678251 0.0794629 0.073519 0.0678251 0.0552813 0.073519 0.0627857 0.0552813 0.0400003 0.0627857 0.047718 0.0400003 0.0279308 0.047718 0.0331096 0.0279308 0.0302518 0.0331096 0.0315194 0.0302518 0.0524049 0.0315194 0.0520061 0.0524049 0.073584 0.0520061 0.0714712 0.073584 0.0736206 0.0714712 0.0676886 0.0736206 0.0583276 0.0676886 0.0502665 0.0583276 0.0383718 0.0502665 0.0313393 0.0383718 0.0187178 0.0313393 0.0148001 0.0187178 1.03062e-16 0.0148001 9.87467e-17 9.87467e-17 -0.0148001 9.13149e-17 -0.0101807 -0.0148001 -0.0313393 -0.0101807 -0.0227573 -0.0313393 -0.0502665 -0.0227573 -0.0398811 -0.0502665 -0.0676886 -0.0398811 -0.059548 -0.0676886 -0.0714712 -0.059548 -0.0684394 -0.0714712 -0.0520061 -0.0684394 -0.0515453 -0.0520061 -0.0315194 -0.0515453 -0.0335293 -0.0315194 -0.0331096 -0.0335293 -0.0402724 -0.0331096 -0.047718 -0.0402724 -0.0575379 -0.047718 -0.0627857 -0.0575379 -0.0716803 -0.0627857 -0.073519 -0.0716803 -0.0798997 -0.073519 -0.0794629 -0.0798997 -0.0833117 -0.0794629 -0.0811553 -0.0833117 -0.083018 -0.0811553 -0.0792446 -0.083018 -0.0797449 -0.0792446 -0.0744589 -0.0797449 -0.074141 -0.0744589 -0.0675953 -0.074141 -0.0668775 -0.0675953 -0.0594311 -0.0668775 -0.0586023 -0.0594311 -0.0506258 -0.0586023 -0.0498606 -0.0506258 -0.0416612 -0.0498606 -0.0410441 -0.0416612 -0.0328312 -0.0410441 -0.0323837 -0.0328312 -0.0242692 -0.0323837 -0.0239755 -0.0242692 -0.0159905 -0.0239755 -0.01582 -0.0159905 -0.00793491 -0.01582 -0.00785825 -0.00793491 0 -0.00785825 0 0 0.00793491 0 0.00785825 0.00793491 0.0159905 0.00785825 0.01582 0.0159905 0.0242692 0.01582 0.0239755 0.0242692 0.0328312 0.0239755 0.0323837 0.0328312 0.0416612 0.0323837 0.0410441 0.0416612 0.0506258 0.0410441 0.0498606 0.0506258 0.0594311 0.0498606 0.0586023 0.0594311 0.0675953 0.0586023 0.0668775 0.0675953 0.0744589 0.0668775 0.074141 0.0744589 0.0792446 0.074141 0.0797449 0.0792446 0.0811553 0.0797449 0.083018 0.0811553 0.0794629 0.083018 0.0833117 0.0794629 0.073519 0.0833117 0.0798997 0.073519 0.0627857 0.0798997 0.0716803 0.0627857 0.047718 0.0716803 0.0575379 0.047718 0.0331096 0.0575379 0.0402724 0.0331096 0.0315194 0.0402724 0.0335293 0.0315194 0.0520061 0.0335293 0.0515453 0.0520061 0.0714712 0.0515453 0.0684394 0.0714712 0.0676886 0.0684394 0.059548 0.0676886 0.0502665 0.059548 0.0398811 0.0502665 0.0313393 0.0398811 0.0227573 0.0313393 0.0148001 0.0227573 0.0101807 0.0148001 9.87467e-17 0.0101807 9.13149e-17 9.13149e-17 -0.0101807 7.79749e-17 -0.00497537 -0.0101807 -0.0227573 -0.00497537 -0.0126864 -0.0227573 -0.0398811 -0.0126864 -0.0268236 -0.0398811 -0.059548 -0.0268236 -0.0484105 -0.059548 -0.0684394 -0.0484105 -0.0639695 -0.0684394 -0.0515453 -0.0639695 -0.0510295 -0.0515453 -0.0335293 -0.0510295 -0.0367897 -0.0335293 -0.0402724 -0.0367897 -0.050178 -0.0402724 -0.0575379 -0.050178 -0.0697595 -0.0575379 -0.0716803 -0.0697595 -0.0818162 -0.0716803 -0.0798997 -0.0818162 -0.0867001 -0.0798997 -0.0833117 -0.0867001 -0.0871813 -0.0833117 -0.083018 -0.0871813 -0.0847252 -0.083018 -0.0797449 -0.0847252 -0.0800255 -0.0797449 -0.074141 -0.0800255 -0.073602 -0.074141 -0.0668775 -0.073602 -0.0659712 -0.0668775 -0.0586023 -0.0659712 -0.0576315 -0.0586023 -0.0498606 -0.0576315 -0.049001 -0.0498606 -0.0410441 -0.049001 -0.040373 -0.0410441 -0.0323837 -0.040373 -0.0319114 -0.0323837 -0.0239755 -0.0319114 -0.023675 -0.0239755 -0.01582 -0.023675 -0.0156506 -0.01582 -0.00785825 -0.0156506 -0.00778393 -0.00785825 0 -0.00778393 0 0 0.00785825 0 0.00778393 0.00785825 0.01582 0.00778393 0.0156506 0.01582 0.0239755 0.0156506 0.023675 0.0239755 0.0323837 0.023675 0.0319114 0.0323837 0.0410441 0.0319114 0.040373 0.0410441 0.0498606 0.040373 0.049001 0.0498606 0.0586023 0.049001 0.0576315 0.0586023 0.0668775 0.0576315 0.0659712 0.0668775 0.074141 0.0659712 0.073602 0.074141 0.0797449 0.073602 0.0800255 0.0797449 0.083018 0.0800255 0.0847252 0.083018 0.0833117 0.0847252 0.0871813 0.0833117 0.0798997 0.0871813 0.0867001 0.0798997 0.0716803 0.0867001 0.0818162 0.0716803 0.0575379 0.0818162 0.0697595 0.0575379 0.0402724 0.0697595 0.050178 0.0402724 0.0335293 0.050178 0.0367897 0.0335293 0.0515453 0.0367897 0.0510295 0.0515453 0.0684394 0.0510295 0.0639695 0.0684394 0.059548 0.0639695 0.0484105 0.059548 0.0398811 0.0484105 0.0268236 0.0398811 0.0227573 0.0268236 0.0126864 0.0227573 0.0101807 0.0126864 0.00497537 0.0101807 9.13149e-17 0.00497537 7.79749e-17 7.79749e-17 -0.00497537 7.14977e-17 0.000649056 -0.00497537 -0.0126864 0.000649056 -0.00133003 -0.0126864 -0.0268236 -0.00133003 -0.0108178 -0.0268236 -0.0484105 -0.0108178 -0.0331914 -0.0484105 -0.0639695 -0.0331914 -0.0572 -0.0639695 -0.0510295 -0.0572 -0.0504664 -0.0510295 -0.0367897 -0.0504664 -0.0421482 -0.0367897 -0.050178 -0.0421482 -0.0638902 -0.050178 -0.0697595 -0.0638902 -0.0846292 -0.0697595 -0.0818162 -0.0846292 -0.0929168 -0.0818162 -0.0867001 -0.0929168 -0.093607 -0.0867001 -0.0871813 -0.093607 -0.0908347 -0.0871813 -0.0847252 -0.0908347 -0.0861072 -0.0847252 -0.0800255 -0.0861072 -0.0799746 -0.0800255 -0.073602 -0.0799746 -0.0727783 -0.073602 -0.0659712 -0.0727783 -0.0648486 -0.0659712 -0.0576315 -0.0648486 -0.0565157 -0.0576315 -0.049001 -0.0565157 -0.0480584 -0.049001 -0.040373 -0.0480584 -0.0396656 -0.040373 -0.0319114 -0.0396656 -0.031433 -0.0319114 -0.023675 -0.031433 -0.0233833 -0.023675 -0.0156506 -0.0233833 -0.0154936 -0.0156506 -0.00778393 -0.0154936 -0.00771765 -0.00778393 0 -0.00771765 0 0 0.00778393 0 0.00771765 0.00778393 0.0156506 0.00771765 0.0154936 0.0156506 0.023675 0.0154936 0.0233833 0.023675 0.0319114 0.0233833 0.031433 0.0319114 0.040373 0.031433 0.0396656 0.040373 0.049001 0.0396656 0.0480584 0.049001 0.0576315 0.0480584 0.0565157 0.0576315 0.0659712 0.0565157 0.0648486 0.0659712 0.073602 0.0648486 0.0727783 0.073602 0.0800255 0.0727783 0.0799746 0.0800255 0.0847252 0.0799746 0.0861072 0.0847252 0.0871813 0.0861072 0.0908347 0.0871813 0.0867001 0.0908347 0.093607 0.0867001 0.0818162 0.093607 0.0929168 0.0818162 0.0697595 0.0929168 0.0846292 0.0697595 0.050178 0.0846292 0.0638902 0.050178 0.0367897 0.0638902 0.0421482 0.0367897 0.0510295 0.0421482 0.0504664 0.0510295 0.0639695 0.0504664 0.0572 0.0639695 0.0484105 0.0572 0.0331914 0.0484105 0.0268236 0.0331914 0.0108178 0.0268236 0.0126864 0.0108178 0.00133003 0.0126864 0.00497537 0.00133003 -0.000649056 0.00497537 7.79749e-17 -0.000649056 7.14977e-17 7.14977e-17 0.000649056 6.95049e-17 0.0064915 0.000649056 -0.00133003 0.0064915 0.0109093 -0.00133003 -0.0108178 0.0109093 0.00814693 -0.0108178 -0.0331914 0.00814693 -0.0124663 -0.0331914 -0.0572 -0.0124663 -0.046676 -0.0572 -0.0504664 -0.046676 -0.049865 -0.0504664 -0.0421482 -0.049865 -0.0510444 -0.0421482 -0.0638902 -0.0510444 -0.0828359 -0.0638902 -0.0846292 -0.0828359 -0.102154 -0.0846292 -0.0929168 -0.102154 -0.104521 -0.0929168 -0.093607 -0.104521 -0.100276 -0.093607 -0.0908347 -0.100276 -0.0940332 -0.0908347 -0.0861072 -0.0940332 -0.0869937 -0.0861072 -0.0799746 -0.0869937 -0.0794816 -0.0799746 -0.0727783 -0.0794816 -0.0716075 -0.0727783 -0.0648486 -0.0716075 -0.0634839 -0.0648486 -0.0565157 -0.0634839 -0.0552539 -0.0565157 -0.0480584 -0.0552539 -0.0470462 -0.0480584 -0.0396656 -0.0470462 -0.0389415 -0.0396656 -0.031433 -0.0389415 -0.0309681 -0.031433 -0.0233833 -0.0309681 -0.023117 -0.0233833 -0.0154936 -0.023117 -0.0153603 -0.0154936 -0.00771765 -0.0153603 -0.00766524 -0.00771765 0 -0.00766524 0 0 0.00771765 0 0.00766524 0.00771765 0.0154936 0.00766524 0.0153603 0.0154936 0.0233833 0.0153603 0.023117 0.0233833 0.031433 0.023117 0.0309681 0.031433 0.0396656 0.0309681 0.0389415 0.0396656 0.0480584 0.0389415 0.0470462 0.0480584 0.0565157 0.0470462 0.0552539 0.0565157 0.0648486 0.0552539 0.0634839 0.0648486 0.0727783 0.0634839 0.0716075 0.0727783 0.0799746 0.0716075 0.0794816 0.0799746 0.0861072 0.0794816 0.0869937 0.0861072 0.0908347 0.0869937 0.0940332 0.0908347 0.093607 0.0940332 0.100276 0.093607 0.0929168 0.100276 0.104521 0.0929168 0.0846292 0.104521 0.102154 0.0846292 0.0638902 0.102154 0.0828359 0.0638902 0.0421482 0.0828359 0.0510444 0.0421482 0.0504664 0.0510444 0.049865 0.0504664 0.0572 0.049865 0.046676 0.0572 0.0331914 0.046676 0.0124663 0.0331914 0.0108178 0.0124663 -0.00814693 0.0108178 0.00133003 -0.00814693 -0.0109093 0.00133003 -0.000649056 -0.0109093 -0.0064915 -0.000649056 7.14977e-17 -0.0064915 6.95049e-17 6.95049e-17 0.0064915 7.13328e-17 0.0123549 0.0064915 0.0109093 0.0123549 0.0234442 0.0109093 0.00814693 0.0234442 0.0294755 0.00814693 -0.0124663 0.0294755 0.0154552 -0.0124663 -0.046676 0.0154552 -0.029833 -0.046676 -0.049865 -0.029833 -0.0492357 -0.049865 -0.0510444 -0.0492357 -0.0660343 -0.0510444 -0.0828359 -0.0660343 -0.108752 -0.0828359 -0.102154 -0.108752 -0.121759 -0.102154 -0.104521 -0.121759 -0.115989 -0.104521 -0.100276 -0.115989 -0.106369 -0.100276 -0.0940332 -0.106369 -0.0965379 -0.0940332 -0.0869937 -0.0965379 -0.0872168 -0.0869937 -0.0794816 -0.0872168 -0.0784401 -0.0794816 -0.0716075 -0.0784401 -0.0700309 -0.0716075 -0.0634839 -0.0700309 -0.0618552 -0.0634839 -0.0552539 -0.0618552 -0.0538491 -0.0552539 -0.0470462 -0.0538491 -0.0459813 -0.0470462 -0.0389415 -0.0459813 -0.0382226 -0.0389415 -0.0309681 -0.0382226 -0.0305379 -0.0309681 -0.023117 -0.0305379 -0.0228932 -0.023117 -0.0153603 -0.0228932 -0.0152626 -0.0153603 -0.00766524 -0.0152626 -0.00763264 -0.00766524 0 -0.00763264 0 0 0.00766524 0 0.00763264 0.00766524 0.0153603 0.00763264 0.0152626 0.0153603 0.023117 0.0152626 0.0228932 0.023117 0.0309681 0.0228932 0.0305379 0.0309681 0.0389415 0.0305379 0.0382226 0.0389415 0.0470462 0.0382226 0.0459813 0.0470462 0.0552539 0.0459813 0.0538491 0.0552539 0.0634839 0.0538491 0.0618552 0.0634839 0.0716075 0.0618552 0.0700309 0.0716075 0.0794816 0.0700309 0.0784401 0.0794816 0.0869937 0.0784401 0.0872168 0.0869937 0.0940332 0.0872168 0.0965379 0.0940332 0.100276 0.0965379 0.106369 0.100276 0.104521 0.106369 0.115989 0.104521 0.102154 0.115989 0.121759 0.102154 0.0828359 0.121759 0.108752 0.0828359 0.0510444 0.108752 0.0660343 0.0510444 0.049865 0.0660343 0.0492357 0.049865 0.046676 0.0492357 0.029833 0.046676 0.0124663 0.029833 -0.0154552 0.0124663 -0.00814693 -0.0154552 -0.0294755 -0.00814693 -0.0109093 -0.0294755 -0.0234442 -0.0109093 -0.0064915 -0.0234442 -0.0123549 -0.0064915 6.95049e-17 -0.0123549 7.13328e-17 7.13328e-17 0.0123549 6.76998e-17 0.01806 0.0123549 0.0234442 0.01806 0.0356886 0.0234442 0.0294755 0.0356886 0.0515424 0.0294755 0.0154552 0.0515424 0.0518395 0.0154552 -0.029833 0.0518395 -0.00172876 -0.029833 -0.0492357 -0.00172876 -0.0485958 -0.0492357 -0.0660343 -0.0