# vtk DataFile Version 3.0
#This file was generated by the deal.II library on 2017/9/27 at 13:18:39
ASCII
DATASET UNSTRUCTURED_GRID

POINTS 2688 double
-5.63207 0 0
-5.3974 0 0
-5.63207 0.0714286 0
-5.3974 0.0714286 0
-5.3974 0 0
-5.16273 0 0
-5.3974 0.0714286 0
-5.16273 0.0714286 0
-5.16273 0 0
-4.92806 0 0
-5.16273 0.0714286 0
-4.92806 0.0714286 0
-4.92806 0 0
-4.69339 0 0
-4.92806 0.0714286 0
-4.69339 0.0714286 0
-4.69339 0 0
-4.45872 0 0
-4.69339 0.0714286 0
-4.45872 0.0714286 0
-4.45872 0 0
-4.22405 0 0
-4.45872 0.0714286 0
-4.22405 0.0714286 0
-4.22405 0 0
-3.98938 0 0
-4.22405 0.0714286 0
-3.98938 0.0714286 0
-3.98938 0 0
-3.75472 0 0
-3.98938 0.0714286 0
-3.75472 0.0714286 0
-3.75472 0 0
-3.52005 0 0
-3.75472 0.0714286 0
-3.52005 0.0714286 0
-3.52005 0 0
-3.28538 0 0
-3.52005 0.0714286 0
-3.28538 0.0714286 0
-3.28538 0 0
-3.05071 0 0
-3.28538 0.0714286 0
-3.05071 0.0714286 0
-3.05071 0 0
-2.81604 0 0
-3.05071 0.0714286 0
-2.81604 0.0714286 0
-2.81604 0 0
-2.58137 0 0
-2.81604 0.0714286 0
-2.58137 0.0714286 0
-2.58137 0 0
-2.3467 0 0
-2.58137 0.0714286 0
-2.3467 0.0714286 0
-2.3467 0 0
-2.11203 0 0
-2.3467 0.0714286 0
-2.11203 0.0714286 0
-2.11203 0 0
-1.87736 0 0
-2.11203 0.0714286 0
-1.87736 0.0714286 0
-1.87736 0 0
-1.64269 0 0
-1.87736 0.0714286 0
-1.64269 0.0714286 0
-1.64269 0 0
-1.40802 0 0
-1.64269 0.0714286 0
-1.40802 0.0714286 0
-1.40802 0 0
-1.17335 0 0
-1.40802 0.0714286 0
-1.17335 0.0714286 0
-1.17335 0 0
-0.938679 0 0
-1.17335 0.0714286 0
-0.938679 0.0714286 0
-0.938679 0 0
-0.704009 0 0
-0.938679 0.0714286 0
-0.704009 0.0714286 0
-0.704009 0 0
-0.469339 0 0
-0.704009 0.0714286 0
-0.469339 0.0714286 0
-0.469339 0 0
-0.23467 0 0
-0.469339 0.0714286 0
-0.23467 0.0714286 0
-0.23467 0 0
0 0 0
-0.23467 0.0714286 0
0 0.0714286 0
0 0 0
0.23467 0 0
0 0.0714286 0
0.23467 0.0714286 0
0.23467 0 0
0.469339 0 0
0.23467 0.0714286 0
0.469339 0.0714286 0
0.469339 0 0
0.704009 0 0
0.469339 0.0714286 0
0.704009 0.0714286 0
0.704009 0 0
0.938679 0 0
0.704009 0.0714286 0
0.938679 0.0714286 0
0.938679 0 0
1.17335 0 0
0.938679 0.0714286 0
1.17335 0.0714286 0
1.17335 0 0
1.40802 0 0
1.17335 0.0714286 0
1.40802 0.0714286 0
1.40802 0 0
1.64269 0 0
1.40802 0.0714286 0
1.64269 0.0714286 0
1.64269 0 0
1.87736 0 0
1.64269 0.0714286 0
1.87736 0.0714286 0
1.87736 0 0
2.11203 0 0
1.87736 0.0714286 0
2.11203 0.0714286 0
2.11203 0 0
2.3467 0 0
2.11203 0.0714286 0
2.3467 0.0714286 0
2.3467 0 0
2.58137 0 0
2.3467 0.0714286 0
2.58137 0.0714286 0
2.58137 0 0
2.81604 0 0
2.58137 0.0714286 0
2.81604 0.0714286 0
2.81604 0 0
3.05071 0 0
2.81604 0.0714286 0
3.05071 0.0714286 0
3.05071 0 0
3.28538 0 0
3.05071 0.0714286 0
3.28538 0.0714286 0
3.28538 0 0
3.52005 0 0
3.28538 0.0714286 0
3.52005 0.0714286 0
3.52005 0 0
3.75472 0 0
3.52005 0.0714286 0
3.75472 0.0714286 0
3.75472 0 0
3.98938 0 0
3.75472 0.0714286 0
3.98938 0.0714286 0
3.98938 0 0
4.22405 0 0
3.98938 0.0714286 0
4.22405 0.0714286 0
4.22405 0 0
4.45872 0 0
4.22405 0.0714286 0
4.45872 0.0714286 0
4.45872 0 0
4.69339 0 0
4.45872 0.0714286 0
4.69339 0.0714286 0
4.69339 0 0
4.92806 0 0
4.69339 0.0714286 0
4.92806 0.0714286 0
4.92806 0 0
5.16273 0 0
4.92806 0.0714286 0
5.16273 0.0714286 0
5.16273 0 0
5.3974 0 0
5.16273 0.0714286 0
5.3974 0.0714286 0
5.3974 0 0
5.63207 0 0
5.3974 0.0714286 0
5.63207 0.0714286 0
-5.63207 0.0714286 0
-5.3974 0.0714286 0
-5.63207 0.142857 0
-5.3974 0.142857 0
-5.3974 0.0714286 0
-5.16273 0.0714286 0
-5.3974 0.142857 0
-5.16273 0.142857 0
-5.16273 0.0714286 0
-4.92806 0.0714286 0
-5.16273 0.142857 0
-4.92806 0.142857 0
-4.92806 0.0714286 0
-4.69339 0.0714286 0
-4.92806 0.142857 0
-4.69339 0.142857 0
-4.69339 0.0714286 0
-4.45872 0.0714286 0
-4.69339 0.142857 0
-4.45872 0.142857 0
-4.45872 0.0714286 0
-4.22405 0.0714286 0
-4.45872 0.142857 0
-4.22405 0.142857 0
-4.22405 0.0714286 0
-3.98938 0.0714286 0
-4.22405 0.142857 0
-3.98938 0.142857 0
-3.98938 0.0714286 0
-3.75472 0.0714286 0
-3.98938 0.142857 0
-3.75472 0.142857 0
-3.75472 0.0714286 0
-3.52005 0.0714286 0
-3.75472 0.142857 0
-3.52005 0.142857 0
-3.52005 0.0714286 0
-3.28538 0.0714286 0
-3.52005 0.142857 0
-3.28538 0.142857 0
-3.28538 0.0714286 0
-3.05071 0.0714286 0
-3.28538 0.142857 0
-3.05071 0.142857 0
-3.05071 0.0714286 0
-2.81604 0.0714286 0
-3.05071 0.142857 0
-2.81604 0.142857 0
-2.81604 0.0714286 0
-2.58137 0.0714286 0
-2.81604 0.142857 0
-2.58137 0.142857 0
-2.58137 0.0714286 0
-2.3467 0.0714286 0
-2.58137 0.142857 0
-2.3467 0.142857 0
-2.3467 0.0714286 0
-2.11203 0.0714286 0
-2.3467 0.142857 0
-2.11203 0.142857 0
-2.11203 0.0714286 0
-1.87736 0.0714286 0
-2.11203 0.142857 0
-1.87736 0.142857 0
-1.87736 0.0714286 0
-1.64269 0.0714286 0
-1.87736 0.142857 0
-1.64269 0.142857 0
-1.64269 0.0714286 0
-1.40802 0.0714286 0
-1.64269 0.142857 0
-1.40802 0.142857 0
-1.40802 0.0714286 0
-1.17335 0.0714286 0
-1.40802 0.142857 0
-1.17335 0.142857 0
-1.17335 0.0714286 0
-0.938679 0.0714286 0
-1.17335 0.142857 0
-0.938679 0.142857 0
-0.938679 0.0714286 0
-0.704009 0.0714286 0
-0.938679 0.142857 0
-0.704009 0.142857 0
-0.704009 0.0714286 0
-0.469339 0.0714286 0
-0.704009 0.142857 0
-0.469339 0.142857 0
-0.469339 0.0714286 0
-0.23467 0.0714286 0
-0.469339 0.142857 0
-0.23467 0.142857 0
-0.23467 0.0714286 0
0 0.0714286 0
-0.23467 0.142857 0
0 0.142857 0
0 0.0714286 0
0.23467 0.0714286 0
0 0.142857 0
0.23467 0.142857 0
0.23467 0.0714286 0
0.469339 0.0714286 0
0.23467 0.142857 0
0.469339 0.142857 0
0.469339 0.0714286 0
0.704009 0.0714286 0
0.469339 0.142857 0
0.704009 0.142857 0
0.704009 0.0714286 0
0.938679 0.0714286 0
0.704009 0.142857 0
0.938679 0.142857 0
0.938679 0.0714286 0
1.17335 0.0714286 0
0.938679 0.142857 0
1.17335 0.142857 0
1.17335 0.0714286 0
1.40802 0.0714286 0
1.17335 0.142857 0
1.40802 0.142857 0
1.40802 0.0714286 0
1.64269 0.0714286 0
1.40802 0.142857 0
1.64269 0.142857 0
1.64269 0.0714286 0
1.87736 0.0714286 0
1.64269 0.142857 0
1.87736 0.142857 0
1.87736 0.0714286 0
2.11203 0.0714286 0
1.87736 0.142857 0
2.11203 0.142857 0
2.11203 0.0714286 0
2.3467 0.0714286 0
2.11203 0.142857 0
2.3467 0.142857 0
2.3467 0.0714286 0
2.58137 0.0714286 0
2.3467 0.142857 0
2.58137 0.142857 0
2.58137 0.0714286 0
2.81604 0.0714286 0
2.58137 0.142857 0
2.81604 0.142857 0
2.81604 0.0714286 0
3.05071 0.0714286 0
2.81604 0.142857 0
3.05071 0.142857 0
3.05071 0.0714286 0
3.28538 0.0714286 0
3.05071 0.142857 0
3.28538 0.142857 0
3.28538 0.0714286 0
3.52005 0.0714286 0
3.28538 0.142857 0
3.52005 0.142857 0
3.52005 0.0714286 0
3.75472 0.0714286 0
3.52005 0.142857 0
3.75472 0.142857 0
3.75472 0.0714286 0
3.98938 0.0714286 0
3.75472 0.142857 0
3.98938 0.142857 0
3.98938 0.0714286 0
4.22405 0.0714286 0
3.98938 0.142857 0
4.22405 0.142857 0
4.22405 0.0714286 0
4.45872 0.0714286 0
4.22405 0.142857 0
4.45872 0.142857 0
4.45872 0.0714286 0
4.69339 0.0714286 0
4.45872 0.142857 0
4.69339 0.142857 0
4.69339 0.0714286 0
4.92806 0.0714286 0
4.69339 0.142857 0
4.92806 0.142857 0
4.92806 0.0714286 0
5.16273 0.0714286 0
4.92806 0.142857 0
5.16273 0.142857 0
5.16273 0.0714286 0
5.3974 0.0714286 0
5.16273 0.142857 0
5.3974 0.142857 0
5.3974 0.0714286 0
5.63207 0.0714286 0
5.3974 0.142857 0
5.63207 0.142857 0
-5.63207 0.142857 0
-5.3974 0.142857 0
-5.63207 0.214286 0
-5.3974 0.214286 0
-5.3974 0.142857 0
-5.16273 0.142857 0
-5.3974 0.214286 0
-5.16273 0.214286 0
-5.16273 0.142857 0
-4.92806 0.142857 0
-5.16273 0.214286 0
-4.92806 0.214286 0
-4.92806 0.142857 0
-4.69339 0.142857 0
-4.92806 0.214286 0
-4.69339 0.214286 0
-4.69339 0.142857 0
-4.45872 0.142857 0
-4.69339 0.214286 0
-4.45872 0.214286 0
-4.45872 0.142857 0
-4.22405 0.142857 0
-4.45872 0.214286 0
-4.22405 0.214286 0
-4.22405 0.142857 0
-3.98938 0.142857 0
-4.22405 0.214286 0
-3.98938 0.214286 0
-3.98938 0.142857 0
-3.75472 0.142857 0
-3.98938 0.214286 0
-3.75472 0.214286 0
-3.75472 0.142857 0
-3.52005 0.142857 0
-3.75472 0.214286 0
-3.52005 0.214286 0
-3.52005 0.142857 0
-3.28538 0.142857 0
-3.52005 0.214286 0
-3.28538 0.214286 0
-3.28538 0.142857 0
-3.05071 0.142857 0
-3.28538 0.214286 0
-3.05071 0.214286 0
-3.05071 0.142857 0
-2.81604 0.142857 0
-3.05071 0.214286 0
-2.81604 0.214286 0
-2.81604 0.142857 0
-2.58137 0.142857 0
-2.81604 0.214286 0
-2.58137 0.214286 0
-2.58137 0.142857 0
-2.3467 0.142857 0
-2.58137 0.214286 0
-2.3467 0.214286 0
-2.3467 0.142857 0
-2.11203 0.142857 0
-2.3467 0.214286 0
-2.11203 0.214286 0
-2.11203 0.142857 0
-1.87736 0.142857 0
-2.11203 0.214286 0
-1.87736 0.214286 0
-1.87736 0.142857 0
-1.64269 0.142857 0
-1.87736 0.214286 0
-1.64269 0.214286 0
-1.64269 0.142857 0
-1.40802 0.142857 0
-1.64269 0.214286 0
-1.40802 0.214286 0
-1.40802 0.142857 0
-1.17335 0.142857 0
-1.40802 0.214286 0
-1.17335 0.214286 0
-1.17335 0.142857 0
-0.938679 0.142857 0
-1.17335 0.214286 0
-0.938679 0.214286 0
-0.938679 0.142857 0
-0.704009 0.142857 0
-0.938679 0.214286 0
-0.704009 0.214286 0
-0.704009 0.142857 0
-0.469339 0.142857 0
-0.704009 0.214286 0
-0.469339 0.214286 0
-0.469339 0.142857 0
-0.23467 0.142857 0
-0.469339 0.214286 0
-0.23467 0.214286 0
-0.23467 0.142857 0
0 0.142857 0
-0.23467 0.214286 0
0 0.214286 0
0 0.142857 0
0.23467 0.142857 0
0 0.214286 0
0.23467 0.214286 0
0.23467 0.142857 0
0.469339 0.142857 0
0.23467 0.214286 0
0.469339 0.214286 0
0.469339 0.142857 0
0.704009 0.142857 0
0.469339 0.214286 0
0.704009 0.214286 0
0.704009 0.142857 0
0.938679 0.142857 0
0.704009 0.214286 0
0.938679 0.214286 0
0.938679 0.142857 0
1.17335 0.142857 0
0.938679 0.214286 0
1.17335 0.214286 0
1.17335 0.142857 0
1.40802 0.142857 0
1.17335 0.214286 0
1.40802 0.214286 0
1.40802 0.142857 0
1.64269 0.142857 0
1.40802 0.214286 0
1.64269 0.214286 0
1.64269 0.142857 0
1.87736 0.142857 0
1.64269 0.214286 0
1.87736 0.214286 0
1.87736 0.142857 0
2.11203 0.142857 0
1.87736 0.214286 0
2.11203 0.214286 0
2.11203 0.142857 0
2.3467 0.142857 0
2.11203 0.214286 0
2.3467 0.214286 0
2.3467 0.142857 0
2.58137 0.142857 0
2.3467 0.214286 0
2.58137 0.214286 0
2.58137 0.142857 0
2.81604 0.142857 0
2.58137 0.214286 0
2.81604 0.214286 0
2.81604 0.142857 0
3.05071 0.142857 0
2.81604 0.214286 0
[...]
POINT_DATA 2688
SCALARS x1_displacement double 1
LOOKUP_TABLE default
2.37355e-16 -0.0235753 1.90601e-16 -0.0231295 -0.0235753 -0.0460916 -0.0231295 -0.0453454 -0.0460916 -0.0648123 -0.0453454 -0.0640372 -0.0648123 -0.0743041 -0.0640372 -0.0737771 -0.0743041 -0.06796 -0.0737771 -0.0677504 -0.06796 -0.0457283 -0.0677504 -0.045671 -0.0457283 -0.0227055 -0.045671 -0.0228066 -0.0227055 -0.0141887 -0.0228066 -0.0146388 -0.0141887 -0.0201037 -0.0146388 -0.020874 -0.0201037 -0.0332156 -0.020874 -0.0340768 -0.0332156 -0.0470797 -0.0340768 -0.0478132 -0.0470797 -0.0579543 -0.0478132 -0.0584614 -0.0579543 -0.0643598 -0.0584614 -0.0646443 -0.0643598 -0.0662384 -0.0646443 -0.0663515 -0.0662384 -0.0642744 -0.0663515 -0.0642756 -0.0642744 -0.0594497 -0.0642756 -0.0593897 -0.0594497 -0.0527689 -0.0593897 -0.0526846 -0.0527689 -0.0450958 -0.0526846 -0.045011 -0.0450958 -0.0370748 -0.045011 -0.0370023 -0.0370748 -0.029117 -0.0370023 -0.0290617 -0.029117 -0.0214288 -0.0290617 -0.0213909 -0.0214288 -0.0140607 -0.0213909 -0.0140377 -0.0140607 -0.00695712 -0.0140377 -0.00694643 -0.00695712 0 -0.00694643 0 0 0.00695712 0 0.00694643 0.00695712 0.0140607 0.00694643 0.0140377 0.0140607 0.0214288 0.0140377 0.0213909 0.0214288 0.029117 0.0213909 0.0290617 0.029117 0.0370748 0.0290617 0.0370023 0.0370748 0.0450958 0.0370023 0.045011 0.0450958 0.0527689 0.045011 0.0526846 0.0527689 0.0594497 0.0526846 0.0593897 0.0594497 0.0642744 0.0593897 0.0642756 0.0642744 0.0662384 0.0642756 0.0663515 0.0662384 0.0643598 0.0663515 0.0646443 0.0643598 0.0579543 0.0646443 0.0584614 0.0579543 0.0470797 0.0584614 0.0478132 0.0470797 0.0332156 0.0478132 0.0340768 0.0332156 0.0201037 0.0340768 0.020874 0.0201037 0.0141887 0.020874 0.0146388 0.0141887 0.0227055 0.0146388 0.0228066 0.0227055 0.0457283 0.0228066 0.045671 0.0457283 0.06796 0.045671 0.0677504 0.06796 0.0743041 0.0677504 0.0737771 0.0743041 0.0648123 0.0737771 0.0640372 0.0648123 0.0460916 0.0640372 0.0453454 0.0460916 0.0235753 0.0453454 0.0231295 0.0235753 2.37355e-16 0.0231295 1.90601e-16 1.90601e-16 -0.0231295 1.44134e-16 -0.0218433 -0.0231295 -0.0453454 -0.0218433 -0.0431703 -0.0453454 -0.0640372 -0.0431703 -0.0617492 -0.0640372 -0.0737771 -0.0617492 -0.0722229 -0.0737771 -0.0677504 -0.0722229 -0.0671713 -0.0677504 -0.045671 -0.0671713 -0.0455127 -0.045671 -0.0228066 -0.0455127 -0.023078 -0.0228066 -0.0146388 -0.023078 -0.0159589 -0.0146388 -0.020874 -0.0159589 -0.0231164 -0.020874 -0.0340768 -0.0231164 -0.0365348 -0.0340768 -0.0478132 -0.0365348 -0.0498678 -0.0478132 -0.0584614 -0.0498678 -0.0598588 -0.0584614 -0.0646443 -0.0598588 -0.0654147 -0.0646443 -0.0663515 -0.0654147 -0.0666466 -0.0663515 -0.0642756 -0.0666466 -0.064264 -0.0642756 -0.0593897 -0.064264 -0.0592124 -0.0593897 -0.0526846 -0.0592124 -0.0524438 -0.0526846 -0.045011 -0.0524438 -0.0447717 -0.045011 -0.0370023 -0.0447717 -0.0367993 -0.0370023 -0.0290617 -0.0367993 -0.028908 -0.0290617 -0.0213909 -0.028908 -0.0212857 -0.0213909 -0.0140377 -0.0212857 -0.0139742 -0.0140377 -0.00694643 -0.0139742 -0.00691706 -0.00694643 0 -0.00691706 0 0 0.00694643 0 0.00691706 0.00694643 0.0140377 0.00691706 0.0139742 0.0140377 0.0213909 0.0139742 0.0212857 0.0213909 0.0290617 0.0212857 0.028908 0.0290617 0.0370023 0.028908 0.0367993 0.0370023 0.045011 0.0367993 0.0447717 0.045011 0.0526846 0.0447717 0.0524438 0.0526846 0.0593897 0.0524438 0.0592124 0.0593897 0.0642756 0.0592124 0.064264 0.0642756 0.0663515 0.064264 0.0666466 0.0663515 0.0646443 0.0666466 0.0654147 0.0646443 0.0584614 0.0654147 0.0598588 0.0584614 0.0478132 0.0598588 0.0498678 0.0478132 0.0340768 0.0498678 0.0365348 0.0340768 0.020874 0.0365348 0.0231164 0.020874 0.0146388 0.0231164 0.0159589 0.0146388 0.0228066 0.0159589 0.023078 0.0228066 0.045671 0.023078 0.0455127 0.045671 0.0677504 0.0455127 0.0671713 0.0677504 0.0737771 0.0671713 0.0722229 0.0737771 0.0640372 0.0722229 0.0617492 0.0640372 0.0453454 0.0617492 0.0431703 0.0453454 0.0231295 0.0431703 0.0218433 0.0231295 1.90601e-16 0.0218433 1.44134e-16 1.44134e-16 -0.0218433 1.22277e-16 -0.019786 -0.0218433 -0.0431703 -0.019786 -0.039651 -0.0431703 -0.0617492 -0.039651 -0.0579958 -0.0617492 -0.0722229 -0.0579958 -0.0696664 -0.0722229 -0.0671713 -0.0696664 -0.0662696 -0.0671713 -0.0455127 -0.0662696 -0.0452685 -0.0455127 -0.023078 -0.0452685 -0.0234956 -0.023078 -0.0159589 -0.0234956 -0.0181297 -0.0159589 -0.0231164 -0.0181297 -0.0267603 -0.0231164 -0.0365348 -0.0267603 -0.0404427 -0.0365348 -0.0498678 -0.0404427 -0.0530668 -0.0498678 -0.0598588 -0.0530668 -0.0619975 -0.0598588 -0.0654147 -0.0619975 -0.0665741 -0.0654147 -0.0666466 -0.0665741 -0.0670762 -0.0666466 -0.064264 -0.0670762 -0.0642271 -0.064264 -0.0592124 -0.0642271 -0.0589262 -0.0592124 -0.0524438 -0.0589262 -0.0520646 -0.0524438 -0.0447717 -0.0520646 -0.0443987 -0.0447717 -0.0367993 -0.0443987 -0.0364849 -0.0367993 -0.028908 -0.0364849 -0.0286711 -0.028908 -0.0212857 -0.0286711 -0.0211245 -0.0212857 -0.0139742 -0.0211245 -0.0138774 -0.0139742 -0.00691706 -0.0138774 -0.00687239 -0.00691706 0 -0.00687239 0 0 0.00691706 0 0.00687239 0.00691706 0.0139742 0.00687239 0.0138774 0.0139742 0.0212857 0.0138774 0.0211245 0.0212857 0.028908 0.0211245 0.0286711 0.028908 0.0367993 0.0286711 0.0364849 0.0367993 0.0447717 0.0364849 0.0443987 0.0447717 0.0524438 0.0443987 0.0520646 0.0524438 0.0592124 0.0520646 0.0589262 0.0592124 0.064264 0.0589262 0.0642271 0.064264 0.0666466 0.0642271 0.0670762 0.0666466 0.0654147 0.0670762 0.0665741 0.0654147 0.0598588 0.0665741 0.0619975 0.0598588 0.0498678 0.0619975 0.0530668 0.0498678 0.0365348 0.0530668 0.0404427 0.0365348 0.0231164 0.0404427 0.0267603 0.0231164 0.0159589 0.0267603 0.0181297 0.0159589 0.023078 0.0181297 0.0234956 0.023078 0.0455127 0.0234956 0.0452685 0.0455127 0.0671713 0.0452685 0.0662696 0.0671713 0.0722229 0.0662696 0.0696664 0.0722229 0.0617492 0.0696664 0.0579958 0.0617492 0.0431703 0.0579958 0.039651 0.0431703 0.0218433 0.039651 0.019786 0.0218433 1.44134e-16 0.019786 1.22277e-16 1.22277e-16 -0.019786 1.09372e-16 -0.0170028 -0.019786 -0.039651 -0.0170028 -0.0348 -0.039651 -0.0579958 -0.0348 -0.0526858 -0.0579958 -0.0696664 -0.0526858 -0.0659697 -0.0696664 -0.0662696 -0.0659697 -0.0649979 -0.0662696 -0.0452685 -0.0649979 -0.0449495 -0.0452685 -0.0234956 -0.0449495 -0.0241199 -0.0234956 -0.0181297 -0.0241199 -0.0212811 -0.0181297 -0.0267603 -0.0212811 -0.031858 -0.0267603 -0.0404427 -0.031858 -0.0457086 -0.0404427 -0.0530668 -0.0457086 -0.0572405 -0.0530668 -0.0619975 -0.0572405 -0.0647144 -0.0619975 -0.0665741 -0.0647144 -0.0680058 -0.0665741 -0.0670762 -0.0680058 -0.0675724 -0.0670762 -0.0642271 -0.0675724 -0.064135 -0.0642271 -0.0589262 -0.064135 -0.0585264 -0.0589262 -0.0520646 -0.0585264 -0.0515569 -0.0520646 -0.0443987 -0.0515569 -0.0439083 -0.0443987 -0.0364849 -0.0439083 -0.0360766 -0.0364849 -0.0286711 -0.0360766 -0.0283665 -0.0286711 -0.0211245 -0.0283665 -0.0209192 -0.0211245 -0.0138774 -0.0209192 -0.0137552 -0.0138774 -0.00687239 -0.0137552 -0.00681637 -0.00687239 0 -0.00681637 0 0 0.00687239 0 0.00681637 0.00687239 0.0138774 0.00681637 0.0137552 0.0138774 0.0211245 0.0137552 0.0209192 0.0211245 0.0286711 0.0209192 0.0283665 0.0286711 0.0364849 0.0283665 0.0360766 0.0364849 0.0443987 0.0360766 0.0439083 0.0443987 0.0520646 0.0439083 0.0515569 0.0520646 0.0589262 0.0515569 0.0585264 0.0589262 0.0642271 0.0585264 0.064135 0.0642271 0.0670762 0.064135 0.0675724 0.0670762 0.0665741 0.0675724 0.0680058 0.0665741 0.0619975 0.0680058 0.0647144 0.0619975 0.0530668 0.0647144 0.0572405 0.0530668 0.0404427 0.0572405 0.0457086 0.0404427 0.0267603 0.0457086 0.031858 0.0267603 0.0181297 0.031858 0.0212811 0.0181297 0.0234956 0.0212811 0.0241199 0.0234956 0.0452685 0.0241199 0.0449495 0.0452685 0.0662696 0.0449495 0.0649979 0.0662696 0.0696664 0.0649979 0.0659697 0.0696664 0.0579958 0.0659697 0.0526858 0.0579958 0.039651 0.0526858 0.0348 0.039651 0.019786 0.0348 0.0170028 0.019786 1.22277e-16 0.0170028 1.09372e-16 1.09372e-16 -0.0170028 1.00724e-16 -0.0135354 -0.0170028 -0.0348 -0.0135354 -0.028593 -0.0348 -0.0526858 -0.028593 -0.0456154 -0.0526858 -0.0659697 -0.0456154 -0.0608332 -0.0659697 -0.0649979 -0.0608332 -0.0632132 -0.0649979 -0.0449495 -0.0632132 -0.0445646 -0.0449495 -0.0241199 -0.0445646 -0.0250986 -0.0241199 -0.0212811 -0.0250986 -0.0256952 -0.0212811 -0.031858 -0.0256952 -0.0385656 -0.031858 -0.0457086 -0.0385656 -0.0522696 -0.0457086 -0.0572405 -0.0522696 -0.0622129 -0.0572405 -0.0647144 -0.0622129 -0.0678326 -0.0647144 -0.0680058 -0.0678326 -0.0695783 -0.0680058 -0.0675724 -0.0695783 -0.0680533 -0.0675724 -0.064135 -0.0680533 -0.0639458 -0.064135 -0.0585264 -0.0639458 -0.0579993 -0.0585264 -0.0515569 -0.0579993 -0.0509246 -0.0515569 -0.0439083 -0.0509246 -0.0433135 -0.0439083 -0.0360766 -0.0433135 -0.0355905 -0.0360766 -0.0283665 -0.0355905 -0.0280098 -0.0283665 -0.0209192 -0.0280098 -0.0206824 -0.0209192 -0.0137552 -0.0206824 -0.0136162 -0.0137552 -0.00681637 -0.0136162 -0.00675335 -0.00681637 0 -0.00675335 0 0 0.00681637 0 0.00675335 0.00681637 0.0137552 0.00675335 0.0136162 0.0137552 0.0209192 0.0136162 0.0206824 0.0209192 0.0283665 0.0206824 0.0280098 0.0283665 0.0360766 0.0280098 0.0355905 0.0360766 0.0439083 0.0355905 0.0433135 0.0439083 0.0515569 0.0433135 0.0509246 0.0515569 0.0585264 0.0509246 0.0579993 0.0585264 0.064135 0.0579993 0.0639458 0.064135 0.0675724 0.0639458 0.0680533 0.0675724 0.0680058 0.0680533 0.0695783 0.0680058 0.0647144 0.0695783 0.0678326 0.0647144 0.0572405 0.0678326 0.0622129 0.0572405 0.0457086 0.0622129 0.0522696 0.0457086 0.031858 0.0522696 0.0385656 0.031858 0.0212811 0.0385656 0.0256952 0.0212811 0.0241199 0.0256952 0.0250986 0.0241199 0.0449495 0.0250986 0.0445646 0.0449495 0.0649979 0.0445646 0.0632132 0.0649979 0.0659697 0.0632132 0.0608332 0.0659697 0.0526858 0.0608332 0.0456154 0.0526858 0.0348 0.0456154 0.028593 0.0348 0.0170028 0.028593 0.0135354 0.0170028 1.09372e-16 0.0135354 1.00724e-16 1.00724e-16 -0.0135354 9.07048e-17 -0.00944578 -0.0135354 -0.028593 -0.00944578 -0.0210142 -0.028593 -0.0456154 -0.0210142 -0.0365001 -0.0456154 -0.0608332 -0.0365001 -0.0537776 -0.0608332 -0.0632132 -0.0537776 -0.0606503 -0.0632132 -0.0445646 -0.0606503 -0.0441217 -0.0445646 -0.0250986 -0.0441217 -0.0266961 -0.0250986 -0.0256952 -0.0266961 -0.0318286 -0.0256952 -0.0385656 -0.0318286 -0.0471187 -0.0385656 -0.0522696 -0.0471187 -0.0600552 -0.0522696 -0.0622129 -0.0600552 -0.0677848 -0.0622129 -0.0678326 -0.0677848 -0.071161 -0.0678326 -0.0695783 -0.071161 -0.0711502 -0.0695783 -0.0680533 -0.0711502 -0.0684278 -0.0680533 -0.0639458 -0.0684278 -0.0636099 -0.0639458 -0.0579993 -0.0636099 -0.0573255 -0.0579993 -0.0509246 -0.0573255 -0.0501678 -0.0509246 -0.0433135 -0.0501678 -0.0426255 -0.0433135 -0.0355905 -0.0426255 -0.0350424 -0.0355905 -0.0280098 -0.0350424 -0.0276167 -0.0280098 -0.0206824 -0.0276167 -0.0204273 -0.0206824 -0.0136162 -0.0204273 -0.0134696 -0.0136162 -0.00675335 -0.0134696 -0.00668802 -0.00675335 0 -0.00668802 0 0 0.00675335 0 0.00668802 0.00675335 0.0136162 0.00668802 0.0134696 0.0136162 0.0206824 0.0134696 0.0204273 0.0206824 0.0280098 0.0204273 0.0276167 0.0280098 0.0355905 0.0276167 0.0350424 0.0355905 0.0433135 0.0350424 0.0426255 0.0433135 0.0509246 0.0426255 0.0501678 0.0509246 0.0579993 0.0501678 0.0573255 0.0579993 0.0639458 0.0573255 0.0636099 0.0639458 0.0680533 0.0636099 0.0684278 0.0680533 0.0695783 0.0684278 0.0711502 0.0695783 0.0678326 0.0711502 0.071161 0.0678326 0.0622129 0.071161 0.0677848 0.0622129 0.0522696 0.0677848 0.0600552 0.0522696 0.0385656 0.0600552 0.0471187 0.0385656 0.0256952 0.0471187 0.0318286 0.0256952 0.0250986 0.0318286 0.0266961 0.0250986 0.0445646 0.0266961 0.0441217 0.0445646 0.0632132 0.0441217 0.0606503 0.0632132 0.0608332 0.0606503 0.0537776 0.0608332 0.0456154 0.0537776 0.0365001 0.0456154 0.028593 0.0365001 0.0210142 0.028593 0.0135354 0.0210142 0.00944578 0.0135354 1.00724e-16 0.00944578 9.07048e-17 9.07048e-17 -0.00944578 8.62735e-17 -0.0048348 -0.00944578 -0.0210142 -0.0048348 -0.0121093 -0.0210142 -0.0365001 -0.0121093 -0.0250207 -0.0365001 -0.0537776 -0.0250207 -0.0441057 -0.0537776 -0.0606503 -0.0441057 -0.0568603 -0.0606503 -0.0441217 -0.0568603 -0.0436285 -0.0441217 -0.0266961 -0.0436285 -0.0293562 -0.0266961 -0.0318286 -0.0293562 -0.040355 -0.0318286 -0.0471187 -0.040355 -0.0577939 -0.0471187 -0.0600552 -0.0577939 -0.0689404 -0.0600552 -0.0677848 -0.0689404 -0.0737202 -0.0677848 -0.071161 -0.0737202 -0.0744961 -0.071161 -0.0711502 -0.0744961 -0.0725737 -0.0711502 -0.0684278 -0.0725737 -0.0685996 -0.0684278 -0.0636099 -0.0685996 -0.0630731 -0.0636099 -0.0573255 -0.0630731 -0.0564824 -0.0573255 -0.0501678 -0.0564824 -0.0492851 -0.0501678 -0.0426255 -0.0492851 -0.0418549 -0.0426255 -0.0350424 -0.0418549 -0.0344479 -0.0350424 -0.0276167 -0.0344479 -0.0272033 -0.0276167 -0.0204273 -0.0272033 -0.0201675 -0.0204273 -0.0134696 -0.0201675 -0.0133251 -0.0134696 -0.00668802 -0.0133251 -0.00662526 -0.00668802 0 -0.00662526 0 0 0.00668802 0 0.00662526 0.00668802 0.0134696 0.00662526 0.0133251 0.0134696 0.0204273 0.0133251 0.0201675 0.0204273 0.0276167 0.0201675 0.0272033 0.0276167 0.0350424 0.0272033 0.0344479 0.0350424 0.0426255 0.0344479 0.0418549 0.0426255 0.0501678 0.0418549 0.0492851 0.0501678 0.0573255 0.0492851 0.0564824 0.0573255 0.0636099 0.0564824 0.0630731 0.0636099 0.0684278 0.0630731 0.0685996 0.0684278 0.0711502 0.0685996 0.0725737 0.0711502 0.071161 0.0725737 0.0744961 0.071161 0.0677848 0.0744961 0.0737202 0.0677848 0.0600552 0.0737202 0.0689404 0.0600552 0.0471187 0.0689404 0.0577939 0.0471187 0.0318286 0.0577939 0.040355 0.0318286 0.0266961 0.040355 0.0293562 0.0266961 0.0441217 0.0293562 0.0436285 0.0441217 0.0606503 0.0436285 0.0568603 0.0606503 0.0537776 0.0568603 0.0441057 0.0537776 0.0365001 0.0441057 0.0250207 0.0365001 0.0210142 0.0250207 0.0121093 0.0210142 0.00944578 0.0121093 0.0048348 0.00944578 9.07048e-17 0.0048348 8.62735e-17 8.62735e-17 -0.0048348 8.18594e-17 0.000149616 -0.0048348 -0.0121093 0.000149616 -0.00204906 -0.0121093 -0.0250207 -0.00204906 -0.0109104 -0.0250207 -0.0441057 -0.0109104 -0.0308509 -0.0441057 -0.0568603 -0.0308509 -0.0510932 -0.0568603 -0.0436285 -0.0510932 -0.0430943 -0.0436285 -0.0293562 -0.0430943 -0.033821 -0.0293562 -0.040355 -0.033821 -0.0522231 -0.040355 -0.0577939 -0.0522231 -0.0708291 -0.0577939 -0.0689404 -0.0708291 -0.0786872 -0.0689404 -0.0737202 -0.0786872 -0.0797399 -0.0737202 -0.0744961 -0.0797399 -0.0776262 -0.0744961 -0.0725737 -0.0776262 -0.073698 -0.0725737 -0.0685996 -0.073698 -0.0684703 -0.0685996 -0.0630731 -0.0684703 -0.0622804 -0.0630731 -0.0564824 -0.0622804 -0.0554471 -0.0564824 -0.0492851 -0.0554471 -0.0482752 -0.0492851 -0.0418549 -0.0482752 -0.0410131 -0.0418549 -0.0344479 -0.0410131 -0.0338238 -0.0344479 -0.0272033 -0.0338238 -0.0267866 -0.0272033 -0.0201675 -0.0267866 -0.0199172 -0.0201675 -0.0133251 -0.0199172 -0.0131925 -0.0133251 -0.00662526 -0.0131925 -0.00657018 -0.00662526 0 -0.00657018 0 0 0.00662526 0 0.00657018 0.00662526 0.0133251 0.00657018 0.0131925 0.0133251 0.0201675 0.0131925 0.0199172 0.0201675 0.0272033 0.0199172 0.0267866 0.0272033 0.0344479 0.0267866 0.0338238 0.0344479 0.0418549 0.0338238 0.0410131 0.0418549 0.0492851 0.0410131 0.0482752 0.0492851 0.0564824 0.0482752 0.0554471 0.0564824 0.0630731 0.0554471 0.0622804 0.0630731 0.0685996 0.0622804 0.0684703 0.0685996 0.0725737 0.0684703 0.073698 0.0725737 0.0744961 0.073698 0.0776262 0.0744961 0.0737202 0.0776262 0.0797399 0.0737202 0.0689404 0.0797399 0.0786872 0.0689404 0.0577939 0.0786872 0.0708291 0.0577939 0.040355 0.0708291 0.0522231 0.040355 0.0293562 0.0522231 0.033821 0.0293562 0.0436285 0.033821 0.0430943 0.0436285 0.0568603 0.0430943 0.0510932 0.0568603 0.0441057 0.0510932 0.0308509 0.0441057 0.0250207 0.0308509 0.0109104 0.0250207 0.0121093 0.0109104 0.00204906 0.0121093 0.0048348 0.00204906 -0.000149616 0.0048348 8.62735e-17 -0.000149616 8.18594e-17 8.18594e-17 0.000149616 7.49429e-17 0.00532575 0.000149616 -0.00204906 0.00532575 0.0088153 -0.00204906 -0.0109104 0.0088153 0.00587939 -0.0109104 -0.0308509 0.00587939 -0.0127285 -0.0308509 -0.0510932 -0.0127285 -0.0420758 -0.0510932 -0.0430943 -0.0420758 -0.0425299 -0.0430943 -0.033821 -0.0425299 -0.0413544 -0.033821 -0.0522231 -0.0413544 -0.0687158 -0.0522231 -0.0708291 -0.0687158 -0.0862648 -0.0708291 -0.0786872 -0.0862648 -0.0888895 -0.0786872 -0.0797399 -0.0888895 -0.0855335 -0.0797399 -0.0776262 -0.0855335 -0.0803379 -0.0776262 -0.073698 -0.0803379 -0.0743717 -0.073698 -0.0684703 -0.0743717 -0.0679425 -0.0684703 -0.0622804 -0.0679425 -0.0611778 -0.0622804 -0.0554471 -0.0611778 -0.0541982 -0.0554471 -0.0482752 -0.0541982 -0.0471388 -0.0482752 -0.0410131 -0.0471388 -0.0401132 -0.0410131 -0.0338238 -0.0401132 -0.0331882 -0.0338238 -0.0267866 -0.0331882 -0.0263845 -0.0267866 -0.0199172 -0.0263845 -0.0196913 -0.0199172 -0.0131925 -0.0196913 -0.0130823 -0.0131925 -0.00657018 -0.0130823 -0.00652797 -0.00657018 0 -0.00652797 0 0 0.00657018 0 0.00652797 0.00657018 0.0131925 0.00652797 0.0130823 0.0131925 0.0199172 0.0130823 0.0196913 0.0199172 0.0267866 0.0196913 0.0263845 0.0267866 0.0338238 0.0263845 0.0331882 0.0338238 0.0410131 0.0331882 0.0401132 0.0410131 0.0482752 0.0401132 0.0471388 0.0482752 0.0554471 0.0471388 0.0541982 0.0554471 0.0622804 0.0541982 0.0611778 0.0622804 0.0684703 0.0611778 0.0679425 0.0684703 0.073698 0.0679425 0.0743717 0.073698 0.0776262 0.0743717 0.0803379 0.0776262 0.0797399 0.0803379 0.0855335 0.0797399 0.0786872 0.0855335 0.0888895 0.0786872 0.0708291 0.0888895 0.0862648 0.0708291 0.0522231 0.0862648 0.0687158 0.0522231 0.033821 0.0687158 0.0413544 0.033821 0.0430943 0.0413544 0.0425299 0.0430943 0.0510932 0.0425299 0.0420758 0.0510932 0.0308509 0.0420758 0.0127285 0.0308509 0.0109104 0.0127285 -0.00587939 0.0109104 0.00204906 -0.00587939 -0.0088153 0.00204906 -0.000149616 -0.0088153 -0.00532575 -0.000149616 8.18594e-17 -0.00532575 7.49429e-17 7.49429e-17 0.00532575 6.82323e-17 0.0105134 0.00532575 0.0088153 0.0105134 0.0199516 0.0088153 0.00587939 0.0199516 0.0248791 0.00587939 -0.0127285 0.0248791 0.0118273 -0.0127285 -0.0420758 0.0118273 -0.0275598 -0.0420758 -0.0425299 -0.0275598 -0.0419489 -0.0425299 -0.0413544 -0.0419489 -0.0541972 -0.0413544 -0.0687158 -0.0541972 -0.0914286 -0.0687158 -0.0862648 -0.0914286 -0.103645 -0.0862648 -0.0888895 -0.103645 -0.0989688 -0.0888895 -0.0855335 -0.0989688 -0.0907933 -0.0855335 -0.0803379 -0.0907933 -0.0824173 -0.0803379 -0.0743717 -0.0824173 -0.0744447 -0.0743717 -0.0679425 -0.0744447 -0.0669223 -0.0679425 -0.0611778 -0.0669223 -0.059715 -0.0611778 -0.0541982 -0.059715 -0.0527182 -0.0541982 -0.0471388 -0.0527182 -0.0458801 -0.0471388 -0.0401132 -0.0458801 -0.039171 -0.0401132 -0.0331882 -0.039171 -0.032561 -0.0331882 -0.0263845 -0.032561 -0.0260163 -0.0263845 -0.0196913 -0.0260163 -0.0195051 -0.0196913 -0.0130823 -0.0195051 -0.0130049 -0.0130823 -0.00652797 -0.0130049 -0.00650392 -0.00652797 0 -0.00650392 0 0 0.00652797 0 0.00650392 0.00652797 0.0130823 0.00650392 0.0130049 0.0130823 0.0196913 0.0130049 0.0195051 0.0196913 0.0263845 0.0195051 0.0260163 0.0263845 0.0331882 0.0260163 0.032561 0.0331882 0.0401132 0.032561 0.039171 0.0401132 0.0471388 0.039171 0.0458801 0.0471388 0.0541982 0.0458801 0.0527182 0.0541982 0.0611778 0.0527182 0.059715 0.0611778 0.0679425 0.059715 0.0669223 0.0679425 0.0743717 0.0669223 0.0744447 0.0743717 0.0803379 0.0744447 0.0824173 0.0803379 0.0855335 0.0824173 0.0907933 0.0855335 0.0888895 0.0907933 0.0989688 0.0888895 0.0862648 0.0989688 0.103645 0.0862648 0.0687158 0.103645 0.0914286 0.0687158 0.0413544 0.0914286 0.0541972 0.0413544 0.0425299 0.0541972 0.0419489 0.0425299 0.0420758 0.0419489 0.0275598 0.0420758 0.0127285 0.0275598 -0.0118273 0.0127285 -0.00587939 -0.0118273 -0.0248791 -0.00587939 -0.0088153 -0.0248791 -0.0199516 -0.0088153 -0.00532575 -0.0199516 -0.0105134 -0.00532575 7.49429e-17 -0.0105134 6.82323e-17 6.82323e-17 0.0105134 5.90566e-17 0.0155546 0.0105134 0.0199516 0.0155546 0.0307979 0.0199516 