# vtk DataFile Version 3.0
#This file was generated by the deal.II library on 2017/9/27 at 13:18:27
ASCII
DATASET UNSTRUCTURED_GRID

POINTS 2688 double
-5.63207 0 0
-5.3974 0 0
-5.63207 0.0714286 0
-5.3974 0.0714286 0
-5.3974 0 0
-5.16273 0 0
-5.3974 0.0714286 0
-5.16273 0.0714286 0
-5.16273 0 0
-4.92806 0 0
-5.16273 0.0714286 0
-4.92806 0.0714286 0
-4.92806 0 0
-4.69339 0 0
-4.92806 0.0714286 0
-4.69339 0.0714286 0
-4.69339 0 0
-4.45872 0 0
-4.69339 0.0714286 0
-4.45872 0.0714286 0
-4.45872 0 0
-4.22405 0 0
-4.45872 0.0714286 0
-4.22405 0.0714286 0
-4.22405 0 0
-3.98938 0 0
-4.22405 0.0714286 0
-3.98938 0.0714286 0
-3.98938 0 0
-3.75472 0 0
-3.98938 0.0714286 0
-3.75472 0.0714286 0
-3.75472 0 0
-3.52005 0 0
-3.75472 0.0714286 0
-3.52005 0.0714286 0
-3.52005 0 0
-3.28538 0 0
-3.52005 0.0714286 0
-3.28538 0.0714286 0
-3.28538 0 0
-3.05071 0 0
-3.28538 0.0714286 0
-3.05071 0.0714286 0
-3.05071 0 0
-2.81604 0 0
-3.05071 0.0714286 0
-2.81604 0.0714286 0
-2.81604 0 0
-2.58137 0 0
-2.81604 0.0714286 0
-2.58137 0.0714286 0
-2.58137 0 0
-2.3467 0 0
-2.58137 0.0714286 0
-2.3467 0.0714286 0
-2.3467 0 0
-2.11203 0 0
-2.3467 0.0714286 0
-2.11203 0.0714286 0
-2.11203 0 0
-1.87736 0 0
-2.11203 0.0714286 0
-1.87736 0.0714286 0
-1.87736 0 0
-1.64269 0 0
-1.87736 0.0714286 0
-1.64269 0.0714286 0
-1.64269 0 0
-1.40802 0 0
-1.64269 0.0714286 0
-1.40802 0.0714286 0
-1.40802 0 0
-1.17335 0 0
-1.40802 0.0714286 0
-1.17335 0.0714286 0
-1.17335 0 0
-0.938679 0 0
-1.17335 0.0714286 0
-0.938679 0.0714286 0
-0.938679 0 0
-0.704009 0 0
-0.938679 0.0714286 0
-0.704009 0.0714286 0
-0.704009 0 0
-0.469339 0 0
-0.704009 0.0714286 0
-0.469339 0.0714286 0
-0.469339 0 0
-0.23467 0 0
-0.469339 0.0714286 0
-0.23467 0.0714286 0
-0.23467 0 0
0 0 0
-0.23467 0.0714286 0
0 0.0714286 0
0 0 0
0.23467 0 0
0 0.0714286 0
0.23467 0.0714286 0
0.23467 0 0
0.469339 0 0
0.23467 0.0714286 0
0.469339 0.0714286 0
0.469339 0 0
0.704009 0 0
0.469339 0.0714286 0
0.704009 0.0714286 0
0.704009 0 0
0.938679 0 0
0.704009 0.0714286 0
0.938679 0.0714286 0
0.938679 0 0
1.17335 0 0
0.938679 0.0714286 0
1.17335 0.0714286 0
1.17335 0 0
1.40802 0 0
1.17335 0.0714286 0
1.40802 0.0714286 0
1.40802 0 0
1.64269 0 0
1.40802 0.0714286 0
1.64269 0.0714286 0
1.64269 0 0
1.87736 0 0
1.64269 0.0714286 0
1.87736 0.0714286 0
1.87736 0 0
2.11203 0 0
1.87736 0.0714286 0
2.11203 0.0714286 0
2.11203 0 0
2.3467 0 0
2.11203 0.0714286 0
2.3467 0.0714286 0
2.3467 0 0
2.58137 0 0
2.3467 0.0714286 0
2.58137 0.0714286 0
2.58137 0 0
2.81604 0 0
2.58137 0.0714286 0
2.81604 0.0714286 0
2.81604 0 0
3.05071 0 0
2.81604 0.0714286 0
3.05071 0.0714286 0
3.05071 0 0
3.28538 0 0
3.05071 0.0714286 0
3.28538 0.0714286 0
3.28538 0 0
3.52005 0 0
3.28538 0.0714286 0
3.52005 0.0714286 0
3.52005 0 0
3.75472 0 0
3.52005 0.0714286 0
3.75472 0.0714286 0
3.75472 0 0
3.98938 0 0
3.75472 0.0714286 0
3.98938 0.0714286 0
3.98938 0 0
4.22405 0 0
3.98938 0.0714286 0
4.22405 0.0714286 0
4.22405 0 0
4.45872 0 0
4.22405 0.0714286 0
4.45872 0.0714286 0
4.45872 0 0
4.69339 0 0
4.45872 0.0714286 0
4.69339 0.0714286 0
4.69339 0 0
4.92806 0 0
4.69339 0.0714286 0
4.92806 0.0714286 0
4.92806 0 0
5.16273 0 0
4.92806 0.0714286 0
5.16273 0.0714286 0
5.16273 0 0
5.3974 0 0
5.16273 0.0714286 0
5.3974 0.0714286 0
5.3974 0 0
5.63207 0 0
5.3974 0.0714286 0
5.63207 0.0714286 0
-5.63207 0.0714286 0
-5.3974 0.0714286 0
-5.63207 0.142857 0
-5.3974 0.142857 0
-5.3974 0.0714286 0
-5.16273 0.0714286 0
-5.3974 0.142857 0
-5.16273 0.142857 0
-5.16273 0.0714286 0
-4.92806 0.0714286 0
-5.16273 0.142857 0
-4.92806 0.142857 0
-4.92806 0.0714286 0
-4.69339 0.0714286 0
-4.92806 0.142857 0
-4.69339 0.142857 0
-4.69339 0.0714286 0
-4.45872 0.0714286 0
-4.69339 0.142857 0
-4.45872 0.142857 0
-4.45872 0.0714286 0
-4.22405 0.0714286 0
-4.45872 0.142857 0
-4.22405 0.142857 0
-4.22405 0.0714286 0
-3.98938 0.0714286 0
-4.22405 0.142857 0
-3.98938 0.142857 0
-3.98938 0.0714286 0
-3.75472 0.0714286 0
-3.98938 0.142857 0
-3.75472 0.142857 0
-3.75472 0.0714286 0
-3.52005 0.0714286 0
-3.75472 0.142857 0
-3.52005 0.142857 0
-3.52005 0.0714286 0
-3.28538 0.0714286 0
-3.52005 0.142857 0
-3.28538 0.142857 0
-3.28538 0.0714286 0
-3.05071 0.0714286 0
-3.28538 0.142857 0
-3.05071 0.142857 0
-3.05071 0.0714286 0
-2.81604 0.0714286 0
-3.05071 0.142857 0
-2.81604 0.142857 0
-2.81604 0.0714286 0
-2.58137 0.0714286 0
-2.81604 0.142857 0
-2.58137 0.142857 0
-2.58137 0.0714286 0
-2.3467 0.0714286 0
-2.58137 0.142857 0
-2.3467 0.142857 0
-2.3467 0.0714286 0
-2.11203 0.0714286 0
-2.3467 0.142857 0
-2.11203 0.142857 0
-2.11203 0.0714286 0
-1.87736 0.0714286 0
-2.11203 0.142857 0
-1.87736 0.142857 0
-1.87736 0.0714286 0
-1.64269 0.0714286 0
-1.87736 0.142857 0
-1.64269 0.142857 0
-1.64269 0.0714286 0
-1.40802 0.0714286 0
-1.64269 0.142857 0
-1.40802 0.142857 0
-1.40802 0.0714286 0
-1.17335 0.0714286 0
-1.40802 0.142857 0
-1.17335 0.142857 0
-1.17335 0.0714286 0
-0.938679 0.0714286 0
-1.17335 0.142857 0
-0.938679 0.142857 0
-0.938679 0.0714286 0
-0.704009 0.0714286 0
-0.938679 0.142857 0
-0.704009 0.142857 0
-0.704009 0.0714286 0
-0.469339 0.0714286 0
-0.704009 0.142857 0
-0.469339 0.142857 0
-0.469339 0.0714286 0
-0.23467 0.0714286 0
-0.469339 0.142857 0
-0.23467 0.142857 0
-0.23467 0.0714286 0
0 0.0714286 0
-0.23467 0.142857 0
0 0.142857 0
0 0.0714286 0
0.23467 0.0714286 0
0 0.142857 0
0.23467 0.142857 0
0.23467 0.0714286 0
0.469339 0.0714286 0
0.23467 0.142857 0
0.469339 0.142857 0
0.469339 0.0714286 0
0.704009 0.0714286 0
0.469339 0.142857 0
0.704009 0.142857 0
0.704009 0.0714286 0
0.938679 0.0714286 0
0.704009 0.142857 0
0.938679 0.142857 0
0.938679 0.0714286 0
1.17335 0.0714286 0
0.938679 0.142857 0
1.17335 0.142857 0
1.17335 0.0714286 0
1.40802 0.0714286 0
1.17335 0.142857 0
1.40802 0.142857 0
1.40802 0.0714286 0
1.64269 0.0714286 0
1.40802 0.142857 0
1.64269 0.142857 0
1.64269 0.0714286 0
1.87736 0.0714286 0
1.64269 0.142857 0
1.87736 0.142857 0
1.87736 0.0714286 0
2.11203 0.0714286 0
1.87736 0.142857 0
2.11203 0.142857 0
2.11203 0.0714286 0
2.3467 0.0714286 0
2.11203 0.142857 0
2.3467 0.142857 0
2.3467 0.0714286 0
2.58137 0.0714286 0
2.3467 0.142857 0
2.58137 0.142857 0
2.58137 0.0714286 0
2.81604 0.0714286 0
2.58137 0.142857 0
2.81604 0.142857 0
2.81604 0.0714286 0
3.05071 0.0714286 0
2.81604 0.142857 0
3.05071 0.142857 0
3.05071 0.0714286 0
3.28538 0.0714286 0
3.05071 0.142857 0
3.28538 0.142857 0
3.28538 0.0714286 0
3.52005 0.0714286 0
3.28538 0.142857 0
3.52005 0.142857 0
3.52005 0.0714286 0
3.75472 0.0714286 0
3.52005 0.142857 0
3.75472 0.142857 0
3.75472 0.0714286 0
3.98938 0.0714286 0
3.75472 0.142857 0
3.98938 0.142857 0
3.98938 0.0714286 0
4.22405 0.0714286 0
3.98938 0.142857 0
4.22405 0.142857 0
4.22405 0.0714286 0
4.45872 0.0714286 0
4.22405 0.142857 0
4.45872 0.142857 0
4.45872 0.0714286 0
4.69339 0.0714286 0
4.45872 0.142857 0
4.69339 0.142857 0
4.69339 0.0714286 0
4.92806 0.0714286 0
4.69339 0.142857 0
4.92806 0.142857 0
4.92806 0.0714286 0
5.16273 0.0714286 0
4.92806 0.142857 0
5.16273 0.142857 0
5.16273 0.0714286 0
5.3974 0.0714286 0
5.16273 0.142857 0
5.3974 0.142857 0
5.3974 0.0714286 0
5.63207 0.0714286 0
5.3974 0.142857 0
5.63207 0.142857 0
-5.63207 0.142857 0
-5.3974 0.142857 0
-5.63207 0.214286 0
-5.3974 0.214286 0
-5.3974 0.142857 0
-5.16273 0.142857 0
-5.3974 0.214286 0
-5.16273 0.214286 0
-5.16273 0.142857 0
-4.92806 0.142857 0
-5.16273 0.214286 0
-4.92806 0.214286 0
-4.92806 0.142857 0
-4.69339 0.142857 0
-4.92806 0.214286 0
-4.69339 0.214286 0
-4.69339 0.142857 0
-4.45872 0.142857 0
-4.69339 0.214286 0
-4.45872 0.214286 0
-4.45872 0.142857 0
-4.22405 0.142857 0
-4.45872 0.214286 0
-4.22405 0.214286 0
-4.22405 0.142857 0
-3.98938 0.142857 0
-4.22405 0.214286 0
-3.98938 0.214286 0
-3.98938 0.142857 0
-3.75472 0.142857 0
-3.98938 0.214286 0
-3.75472 0.214286 0
-3.75472 0.142857 0
-3.52005 0.142857 0
-3.75472 0.214286 0
-3.52005 0.214286 0
-3.52005 0.142857 0
-3.28538 0.142857 0
-3.52005 0.214286 0
-3.28538 0.214286 0
-3.28538 0.142857 0
-3.05071 0.142857 0
-3.28538 0.214286 0
-3.05071 0.214286 0
-3.05071 0.142857 0
-2.81604 0.142857 0
-3.05071 0.214286 0
-2.81604 0.214286 0
-2.81604 0.142857 0
-2.58137 0.142857 0
-2.81604 0.214286 0
-2.58137 0.214286 0
-2.58137 0.142857 0
-2.3467 0.142857 0
-2.58137 0.214286 0
-2.3467 0.214286 0
-2.3467 0.142857 0
-2.11203 0.142857 0
-2.3467 0.214286 0
-2.11203 0.214286 0
-2.11203 0.142857 0
-1.87736 0.142857 0
-2.11203 0.214286 0
-1.87736 0.214286 0
-1.87736 0.142857 0
-1.64269 0.142857 0
-1.87736 0.214286 0
-1.64269 0.214286 0
-1.64269 0.142857 0
-1.40802 0.142857 0
-1.64269 0.214286 0
-1.40802 0.214286 0
-1.40802 0.142857 0
-1.17335 0.142857 0
-1.40802 0.214286 0
-1.17335 0.214286 0
-1.17335 0.142857 0
-0.938679 0.142857 0
-1.17335 0.214286 0
-0.938679 0.214286 0
-0.938679 0.142857 0
-0.704009 0.142857 0
-0.938679 0.214286 0
-0.704009 0.214286 0
-0.704009 0.142857 0
-0.469339 0.142857 0
-0.704009 0.214286 0
-0.469339 0.214286 0
-0.469339 0.142857 0
-0.23467 0.142857 0
-0.469339 0.214286 0
-0.23467 0.214286 0
-0.23467 0.142857 0
0 0.142857 0
-0.23467 0.214286 0
0 0.214286 0
0 0.142857 0
0.23467 0.142857 0
0 0.214286 0
0.23467 0.214286 0
0.23467 0.142857 0
0.469339 0.142857 0
0.23467 0.214286 0
0.469339 0.214286 0
0.469339 0.142857 0
0.704009 0.142857 0
0.469339 0.214286 0
0.704009 0.214286 0
0.704009 0.142857 0
0.938679 0.142857 0
0.704009 0.214286 0
0.938679 0.214286 0
0.938679 0.142857 0
1.17335 0.142857 0
0.938679 0.214286 0
1.17335 0.214286 0
1.17335 0.142857 0
1.40802 0.142857 0
1.17335 0.214286 0
1.40802 0.214286 0
1.40802 0.142857 0
1.64269 0.142857 0
1.40802 0.214286 0
1.64269 0.214286 0
1.64269 0.142857 0
1.87736 0.142857 0
1.64269 0.214286 0
1.87736 0.214286 0
1.87736 0.142857 0
2.11203 0.142857 0
1.87736 0.214286 0
2.11203 0.214286 0
2.11203 0.142857 0
2.3467 0.142857 0
2.11203 0.214286 0
2.3467 0.214286 0
2.3467 0.142857 0
2.58137 0.142857 0
2.3467 0.214286 0
2.58137 0.214286 0
2.58137 0.142857 0
2.81604 0.142857 0
2.58137 0.214286 0
2.81604 0.214286 0
2.81604 0.142857 0
3.05071 0.142857 0
2.81604 0.214286 0
[...]
POINT_DATA 2688
SCALARS x1_displacement double 1
LOOKUP_TABLE default
1.90883e-16 -0.0233101 1.55346e-16 -0.0229468 -0.0233101 -0.044869 -0.0229468 -0.0442743 -0.044869 -0.0615818 -0.0442743 -0.0609852 -0.0615818 -0.068299 -0.0609852 -0.0679124 -0.068299 -0.0594473 -0.0679124 -0.0592987 -0.0594473 -0.0358601 -0.0592987 -0.0358 -0.0358601 -0.0114218 -0.0358 -0.0114581 -0.0114218 -0.000223964 -0.0114581 -0.000533729 -0.000223964 -0.00314792 -0.000533729 -0.00374251 -0.00314792 -0.0141296 -0.00374251 -0.0148407 -0.0141296 -0.0272094 -0.0148407 -0.027849 -0.0272094 -0.0385571 -0.027849 -0.0390211 -0.0385571 -0.04631 -0.0390211 -0.0465815 -0.04631 -0.0499679 -0.0465815 -0.0500799 -0.0499679 -0.0498621 -0.0500799 -0.0498636 -0.0498621 -0.0467709 -0.0498636 -0.0467085 -0.0467709 -0.0416418 -0.0467085 -0.0415521 -0.0416418 -0.0353862 -0.0415521 -0.0352944 -0.0353862 -0.0287444 -0.0352944 -0.0286651 -0.0287444 -0.0222212 -0.0286651 -0.0221606 -0.0222212 -0.0160843 -0.0221606 -0.0160428 -0.0160843 -0.0104015 -0.0160428 -0.0103765 -0.0104015 -0.00509583 -0.0103765 -0.00508434 -0.00509583 0 -0.00508434 0 0 0.00509583 0 0.00508434 0.00509583 0.0104015 0.00508434 0.0103765 0.0104015 0.0160843 0.0103765 0.0160428 0.0160843 0.0222212 0.0160428 0.0221606 0.0222212 0.0287444 0.0221606 0.0286651 0.0287444 0.0353862 0.0286651 0.0352944 0.0353862 0.0416418 0.0352944 0.0415521 0.0416418 0.0467709 0.0415521 0.0467085 0.0467709 0.0498621 0.0467085 0.0498636 0.0498621 0.0499679 0.0498636 0.0500799 0.0499679 0.04631 0.0500799 0.0465815 0.04631 0.0385571 0.0465815 0.0390211 0.0385571 0.0272094 0.0390211 0.027849 0.0272094 0.0141296 0.027849 0.0148407 0.0141296 0.00314792 0.0148407 0.00374251 0.00314792 0.000223964 0.00374251 0.000533729 0.000223964 0.0114218 0.000533729 0.0114581 0.0114218 0.0358601 0.0114581 0.0358 0.0358601 0.0594473 0.0358 0.0592987 0.0594473 0.068299 0.0592987 0.0679124 0.068299 0.0615818 0.0679124 0.0609852 0.0615818 0.044869 0.0609852 0.0442743 0.044869 0.0233101 0.0442743 0.0229468 0.0233101 1.90883e-16 0.0229468 1.55346e-16 1.55346e-16 -0.0229468 1.13018e-16 -0.0218808 -0.0229468 -0.0442743 -0.0218808 -0.0425107 -0.0442743 -0.0609852 -0.0425107 -0.0591937 -0.0609852 -0.0679124 -0.0591937 -0.0667544 -0.0679124 -0.0592987 -0.0667544 -0.0588879 -0.0592987 -0.0358 -0.0588879 -0.0356333 -0.0358 -0.0114581 -0.0356333 -0.0115493 -0.0114581 -0.000533729 -0.0115493 -0.00145514 -0.000533729 -0.00374251 -0.00145514 -0.00549337 -0.00374251 -0.0148407 -0.00549337 -0.016888 -0.0148407 -0.027849 -0.016888 -0.029651 -0.027849 -0.0390211 -0.029651 -0.0403024 -0.0390211 -0.0465815 -0.0403024 -0.0473147 -0.0465815 -0.0500799 -0.0473147 -0.0503685 -0.0500799 -0.0498636 -0.0503685 -0.0498488 -0.0498636 -0.0467085 -0.0498488 -0.0465209 -0.0467085 -0.0415521 -0.0465209 -0.0412936 -0.0415521 -0.0352944 -0.0412936 -0.0350343 -0.0352944 -0.0286651 -0.0350343 -0.0284428 -0.0286651 -0.0221606 -0.0284428 -0.0219921 -0.0221606 -0.0160428 -0.0219921 -0.0159282 -0.0160428 -0.0103765 -0.0159282 -0.0103082 -0.0103765 -0.00508434 -0.0103082 -0.0050531 -0.00508434 0 -0.0050531 0 0 0.00508434 0 0.0050531 0.00508434 0.0103765 0.0050531 0.0103082 0.0103765 0.0160428 0.0103082 0.0159282 0.0160428 0.0221606 0.0159282 0.0219921 0.0221606 0.0286651 0.0219921 0.0284428 0.0286651 0.0352944 0.0284428 0.0350343 0.0352944 0.0415521 0.0350343 0.0412936 0.0415521 0.0467085 0.0412936 0.0465209 0.0467085 0.0498636 0.0465209 0.0498488 0.0498636 0.0500799 0.0498488 0.0503685 0.0500799 0.0465815 0.0503685 0.0473147 0.0465815 0.0390211 0.0473147 0.0403024 0.0390211 0.027849 0.0403024 0.029651 0.027849 0.0148407 0.029651 0.016888 0.0148407 0.00374251 0.016888 0.00549337 0.00374251 0.000533729 0.00549337 0.00145514 0.000533729 0.0114581 0.00145514 0.0115493 0.0114581 0.0358 0.0115493 0.0356333 0.0358 0.0592987 0.0356333 0.0588879 0.0592987 0.0679124 0.0588879 0.0667544 0.0679124 0.0609852 0.0667544 0.0591937 0.0609852 0.0442743 0.0591937 0.0425107 0.0442743 0.0229468 0.0425107 0.0218808 0.0229468 1.55346e-16 0.0218808 1.13018e-16 1.13018e-16 -0.0218808 9.39821e-17 -0.0201508 -0.0218808 -0.0425107 -0.0201508 -0.0396188 -0.0425107 -0.0591937 -0.0396188 -0.0562212 -0.0591937 -0.0667544 -0.0562212 -0.0648367 -0.0667544 -0.0588879 -0.0648367 -0.0582558 -0.0588879 -0.0356333 -0.0582558 -0.0353753 -0.0356333 -0.0115493 -0.0353753 -0.0116775 -0.0115493 -0.00145514 -0.0116775 -0.00298036 -0.00145514 -0.00549337 -0.00298036 -0.00835978 -0.00549337 -0.016888 -0.00835978 -0.0201663 -0.016888 -0.029651 -0.0201663 -0.0324736 -0.029651 -0.0403024 -0.0324736 -0.0422706 -0.0403024 -0.0473147 -0.0422706 -0.048418 -0.0473147 -0.0503685 -0.048418 -0.0507846 -0.0503685 -0.0498488 -0.0507846 -0.049802 -0.0498488 -0.0465209 -0.049802 -0.0462142 -0.0465209 -0.0412936 -0.0462142 -0.0408836 -0.0412936 -0.0350343 -0.0408836 -0.0346268 -0.0350343 -0.0284428 -0.0346268 -0.0280974 -0.0284428 -0.0219921 -0.0280974 -0.0217322 -0.0219921 -0.0159282 -0.0217322 -0.015753 -0.0159282 -0.0103082 -0.015753 -0.0102045 -0.0103082 -0.0050531 -0.0102045 -0.00500593 -0.0050531 0 -0.00500593 0 0 0.0050531 0 0.00500593 0.0050531 0.0103082 0.00500593 0.0102045 0.0103082 0.0159282 0.0102045 0.015753 0.0159282 0.0219921 0.015753 0.0217322 0.0219921 0.0284428 0.0217322 0.0280974 0.0284428 0.0350343 0.0280974 0.0346268 0.0350343 0.0412936 0.0346268 0.0408836 0.0412936 0.0465209 0.0408836 0.0462142 0.0465209 0.0498488 0.0462142 0.049802 0.0498488 0.0503685 0.049802 0.0507846 0.0503685 0.0473147 0.0507846 0.048418 0.0473147 0.0403024 0.048418 0.0422706 0.0403024 0.029651 0.0422706 0.0324736 0.029651 0.016888 0.0324736 0.0201663 0.016888 0.00549337 0.0201663 0.00835978 0.00549337 0.00145514 0.00835978 0.00298036 0.00145514 0.0115493 0.00298036 0.0116775 0.0115493 0.0356333 0.0116775 0.0353753 0.0356333 0.0588879 0.0353753 0.0582558 0.0588879 0.0667544 0.0582558 0.0648367 0.0667544 0.0591937 0.0648367 0.0562212 0.0591937 0.0425107 0.0562212 0.0396188 0.0425107 0.0218808 0.0396188 0.0201508 0.0218808 1.13018e-16 0.0201508 9.39821e-17 9.39821e-17 -0.0201508 8.73298e-17 -0.017768 -0.0201508 -0.0396188 -0.017768 -0.0355664 -0.0396188 -0.0562212 -0.0355664 -0.0519553 -0.0562212 -0.0648367 -0.0519553 -0.0620314 -0.0648367 -0.0582558 -0.0620314 -0.057365 -0.0582558 -0.0353753 -0.057365 -0.0350368 -0.0353753 -0.0116775 -0.0350368 -0.0118917 -0.0116775 -0.00298036 -0.0118917 -0.00522716 -0.00298036 -0.00835978 -0.00522716 -0.0124123 -0.00835978 -0.0201663 -0.0124123 -0.024627 -0.0201663 -0.0324736 -0.024627 -0.0361873 -0.0324736 -0.0422706 -0.0361873 -0.0447847 -0.0422706 -0.048418 -0.0447847 -0.0497807 -0.048418 -0.0507846 -0.0497807 -0.0512582 -0.0507846 -0.049802 -0.0512582 -0.0496888 -0.049802 -0.0462142 -0.0496888 -0.0457797 -0.0462142 -0.0408836 -0.0457797 -0.0403297 -0.0408836 -0.0346268 -0.0403297 -0.0340879 -0.0346268 -0.0280974 -0.0340879 -0.0276476 -0.0280974 -0.0217322 -0.0276476 -0.0213984 -0.0217322 -0.015753 -0.0213984 -0.015531 -0.015753 -0.0102045 -0.015531 -0.0100749 -0.0102045 -0.00500593 -0.0100749 -0.00494765 -0.00500593 0 -0.00494765 0 0 0.00500593 0 0.00494765 0.00500593 0.0102045 0.00494765 0.0100749 0.0102045 0.015753 0.0100749 0.015531 0.015753 0.0217322 0.015531 0.0213984 0.0217322 0.0280974 0.0213984 0.0276476 0.0280974 0.0346268 0.0276476 0.0340879 0.0346268 0.0408836 0.0340879 0.0403297 0.0408836 0.0462142 0.0403297 0.0457797 0.0462142 0.049802 0.0457797 0.0496888 0.049802 0.0507846 0.0496888 0.0512582 0.0507846 0.048418 0.0512582 0.0497807 0.048418 0.0422706 0.0497807 0.0447847 0.0422706 0.0324736 0.0447847 0.0361873 0.0324736 0.0201663 0.0361873 0.024627 0.0201663 0.00835978 0.024627 0.0124123 0.00835978 0.00298036 0.0124123 0.00522716 0.00298036 0.0116775 0.00522716 0.0118917 0.0116775 0.0353753 0.0118917 0.0350368 0.0353753 0.0582558 0.0350368 0.057365 0.0582558 0.0648367 0.057365 0.0620314 0.0648367 0.0562212 0.0620314 0.0519553 0.0562212 0.0396188 0.0519553 0.0355664 0.0396188 0.0201508 0.0355664 0.017768 0.0201508 9.39821e-17 0.017768 8.73298e-17 8.73298e-17 -0.017768 7.76865e-17 -0.0147353 -0.017768 -0.0355664 -0.0147353 -0.0302785 -0.0355664 -0.0519553 -0.0302785 -0.046177 -0.0519553 -0.0620314 -0.046177 -0.0580726 -0.0620314 -0.057365 -0.0580726 -0.0561019 -0.057365 -0.0350368 -0.0561019 -0.0346261 -0.0350368 -0.0118917 -0.0346261 -0.0123091 -0.0118917 -0.00522716 -0.0123091 -0.00844117 -0.00522716 -0.0124123 -0.00844117 -0.0178186 -0.0124123 -0.024627 -0.0178186 -0.0302566 -0.024627 -0.0361873 -0.0302566 -0.0406613 -0.0361873 -0.0447847 -0.0406613 -0.0476912 -0.0447847 -0.0497807 -0.0476912 -0.0512772 -0.0497807 -0.0512582 -0.0512772 -0.0517043 -0.0512582 -0.0496888 -0.0517043 -0.0494612 -0.0496888 -0.0457797 -0.0494612 -0.0451983 -0.0457797 -0.0403297 -0.0451983 -0.0396327 -0.0403297 -0.0340879 -0.0396327 -0.03343 -0.0340879 -0.0276476 -0.03343 -0.0271109 -0.0276476 -0.0213984 -0.0271109 -0.0210087 -0.0213984 -0.015531 -0.0210087 -0.0152777 -0.015531 -0.0100749 -0.0152777 -0.00993034 -0.0100749 -0.00494765 -0.00993034 -0.00488386 -0.00494765 0 -0.00488386 0 0 0.00494765 0 0.00488386 0.00494765 0.0100749 0.00488386 0.00993034 0.0100749 0.015531 0.00993034 0.0152777 0.015531 0.0213984 0.0152777 0.0210087 0.0213984 0.0276476 0.0210087 0.0271109 0.0276476 0.0340879 0.0271109 0.03343 0.0340879 0.0403297 0.03343 0.0396327 0.0403297 0.0457797 0.0396327 0.0451983 0.0457797 0.0496888 0.0451983 0.0494612 0.0496888 0.0512582 0.0494612 0.0517043 0.0512582 0.0497807 0.0517043 0.0512772 0.0497807 0.0447847 0.0512772 0.0476912 0.0447847 0.0361873 0.0476912 0.0406613 0.0361873 0.024627 0.0406613 0.0302566 0.024627 0.0124123 0.0302566 0.0178186 0.0124123 0.00522716 0.0178186 0.00844117 0.00522716 0.0118917 0.00844117 0.0123091 0.0118917 0.0350368 0.0123091 0.0346261 0.0350368 0.057365 0.0346261 0.0561019 0.057365 0.0620314 0.0561019 0.0580726 0.0620314 0.0519553 0.0580726 0.046177 0.0519553 0.0355664 0.046177 0.0302785 0.0355664 0.017768 0.0302785 0.0147353 0.017768 8.73298e-17 0.0147353 7.76865e-17 7.76865e-17 -0.0147353 7.11643e-17 -0.0110698 -0.0147353 -0.0302785 -0.0110698 -0.0236751 -0.0302785 -0.046177 -0.0236751 -0.0385836 -0.046177 -0.0580726 -0.0385836 -0.0525409 -0.0580726 -0.0561019 -0.0525409 -0.0542572 -0.0561019 -0.0346261 -0.0542572 -0.0341501 -0.0346261 -0.0123091 -0.0341501 -0.0131365 -0.0123091 -0.00844117 -0.0131365 -0.0130154 -0.00844117 -0.0178186 -0.0130154 -0.0248277 -0.0178186 -0.0302566 -0.0248277 -0.0370451 -0.0302566 -0.0406613 -0.0370451 -0.0457457 -0.0406613 -0.0476912 -0.0457457 -0.0508208 -0.0476912 -0.0512772 -0.0508208 -0.0527693 -0.0512772 -0.0517043 -0.0527693 -0.0520264 -0.0517043 -0.0494612 -0.0520264 -0.0490619 -0.0494612 -0.0451983 -0.0490619 -0.044444 -0.0451983 -0.0396327 -0.044444 -0.0387889 -0.0396327 -0.03343 -0.0387889 -0.0326639 -0.03343 -0.0271109 -0.0326639 -0.026505 -0.0271109 -0.0210087 -0.026505 -0.0205822 -0.0210087 -0.0152777 -0.0205822 -0.0150096 -0.0152777 -0.00993034 -0.0150096 -0.00978285 -0.00993034 -0.00488386 -0.00978285 -0.00482079 -0.00488386 0 -0.00482079 0 0 0.00488386 0 0.00482079 0.00488386 0.00993034 0.00482079 0.00978285 0.00993034 0.0152777 0.00978285 0.0150096 0.0152777 0.0210087 0.0150096 0.0205822 0.0210087 0.0271109 0.0205822 0.026505 0.0271109 0.03343 0.026505 0.0326639 0.03343 0.0396327 0.0326639 0.0387889 0.0396327 0.0451983 0.0387889 0.044444 0.0451983 0.0494612 0.044444 0.0490619 0.0494612 0.0517043 0.0490619 0.0520264 0.0517043 0.0512772 0.0520264 0.0527693 0.0512772 0.0476912 0.0527693 0.0508208 0.0476912 0.0406613 0.0508208 0.0457457 0.0406613 0.0302566 0.0457457 0.0370451 0.0302566 0.0178186 0.0370451 0.0248277 0.0178186 0.00844117 0.0248277 0.0130154 0.00844117 0.0123091 0.0130154 0.0131365 0.0123091 0.0346261 0.0131365 0.0341501 0.0346261 0.0561019 0.0341501 0.0542572 0.0561019 0.0580726 0.0542572 0.0525409 0.0580726 0.046177 0.0525409 0.0385836 0.046177 0.0302785 0.0385836 0.0236751 0.0302785 0.0147353 0.0236751 0.0110698 0.0147353 7.76865e-17 0.0110698 7.11643e-17 7.11643e-17 -0.0110698 6.53656e-17 -0.00682381 -0.0110698 -0.0236751 -0.00682381 -0.0157178 -0.0236751 -0.0385836 -0.0157178 -0.0288205 -0.0385836 -0.0525409 -0.0288205 -0.0448293 -0.0525409 -0.0542572 -0.0448293 -0.05148 -0.0542572 -0.0341501 -0.05148 -0.0336162 -0.0341501 -0.0131365 -0.0336162 -0.014718 -0.0131365 -0.0130154 -0.014718 -0.0195286 -0.0130154 -0.0248277 -0.0195286 -0.0337445 -0.0248277 -0.0370451 -0.0337445 -0.0449468 -0.0370451 -0.0457457 -0.0449468 -0.0512548 -0.0457457 -0.0508208 -0.0512548 -0.0539874 -0.0508208 -0.0527693 -0.0539874 -0.0541094 -0.0527693 -0.0520264 -0.0541094 -0.0521206 -0.0520264 -0.0490619 -0.0521206 -0.0484272 -0.0490619 -0.044444 -0.0484272 -0.0434865 -0.044444 -0.0387889 -0.0434865 -0.0377928 -0.0387889 -0.0326639 -0.0377928 -0.0317996 -0.0326639 -0.026505 -0.0317996 -0.0258482 -0.026505 -0.0205822 -0.0258482 -0.020139 -0.0205822 -0.0150096 -0.020139 -0.0147448 -0.0150096 -0.00978285 -0.0147448 -0.00964543 -0.00978285 -0.00482079 -0.00964543 -0.00476521 -0.00482079 0 -0.00476521 0 0 0.00482079 0 0.00476521 0.00482079 0.00978285 0.00476521 0.00964543 0.00978285 0.0150096 0.00964543 0.0147448 0.0150096 0.0205822 0.0147448 0.020139 0.0205822 0.026505 0.020139 0.0258482 0.026505 0.0326639 0.0258482 0.0317996 0.0326639 0.0387889 0.0317996 0.0377928 0.0387889 0.044444 0.0377928 0.0434865 0.044444 0.0490619 0.0434865 0.0484272 0.0490619 0.0520264 0.0484272 0.0521206 0.0520264 0.0527693 0.0521206 0.0541094 0.0527693 0.0508208 0.0541094 0.0539874 0.0508208 0.0457457 0.0539874 0.0512548 0.0457457 0.0370451 0.0512548 0.0449468 0.0370451 0.0248277 0.0449468 0.0337445 0.0248277 0.0130154 0.0337445 0.0195286 0.0130154 0.0131365 0.0195286 0.014718 0.0131365 0.0341501 0.014718 0.0336162 0.0341501 0.0542572 0.0336162 0.05148 0.0542572 0.0525409 0.05148 0.0448293 0.0525409 0.0385836 0.0448293 0.0288205 0.0385836 0.0236751 0.0288205 0.0157178 0.0236751 0.0110698 0.0157178 0.00682381 0.0110698 7.11643e-17 0.00682381 6.53656e-17 6.53656e-17 -0.00682381 6.4775e-17 -0.00209894 -0.00682381 -0.0157178 -0.00209894 -0.00646921 -0.0157178 -0.0288205 -0.00646921 -0.0165438 -0.0288205 -0.0448293 -0.0165438 -0.0340946 -0.0448293 -0.05148 -0.0340946 -0.0471886 -0.05148 -0.0336162 -0.0471886 -0.0330328 -0.0336162 -0.014718 -0.0330328 -0.0176253 -0.014718 -0.0195286 -0.0176253 -0.028799 -0.0195286 -0.0337445 -0.028799 -0.0448754 -0.0337445 -0.0449468 -0.0448754 -0.0538258 -0.0449468 -0.0512548 -0.0538258 -0.0569551 -0.0512548 -0.0539874 -0.0569551 -0.0569899 -0.0539874 -0.0541094 -0.0569899 -0.0551426 -0.0541094 -0.0521206 -0.0551426 -0.0518777 -0.0521206 -0.0484272 -0.0518777 -0.0474901 -0.0484272 -0.0434865 -0.0474901 -0.0422939 -0.0434865 -0.0377928 -0.0422939 -0.0366387 -0.0377928 -0.0317996 -0.0366387 -0.0308486 -0.0317996 -0.0258482 -0.0308486 -0.0251605 -0.0258482 -0.020139 -0.0251605 -0.0197012 -0.020139 -0.0147448 -0.0197012 -0.0145025 -0.0147448 -0.00964543 -0.0145025 -0.00953207 -0.00964543 -0.00476521 -0.00953207 -0.00472438 -0.00476521 0 -0.00472438 0 0 0.00476521 0 0.00472438 0.00476521 0.00964543 0.00472438 0.00953207 0.00964543 0.0147448 0.00953207 0.0145025 0.0147448 0.020139 0.0145025 0.0197012 0.020139 0.0258482 0.0197012 0.0251605 0.0258482 0.0317996 0.0251605 0.0308486 0.0317996 0.0377928 0.0308486 0.0366387 0.0377928 0.0434865 0.0366387 0.0422939 0.0434865 0.0484272 0.0422939 0.0474901 0.0484272 0.0521206 0.0474901 0.0518777 0.0521206 0.0541094 0.0518777 0.0551426 0.0541094 0.0539874 0.0551426 0.0569899 0.0539874 0.0512548 0.0569899 0.0569551 0.0512548 0.0449468 0.0569551 0.0538258 0.0449468 0.0337445 0.0538258 0.0448754 0.0337445 0.0195286 0.0448754 0.028799 0.0195286 0.014718 0.028799 0.0176253 0.014718 0.0336162 0.0176253 0.0330328 0.0336162 0.05148 0.0330328 0.0471886 0.05148 0.0448293 0.0471886 0.0340946 0.0448293 0.0288205 0.0340946 0.0165438 0.0288205 0.0157178 0.0165438 0.00646921 0.0157178 0.00682381 0.00646921 0.00209894 0.00682381 6.53656e-17 0.00209894 6.4775e-17 6.4775e-17 -0.00209894 5.76345e-17 0.00295706 -0.00209894 -0.00646921 0.00295706 0.00384603 -0.00646921 -0.0165438 0.00384603 -0.00154189 -0.0165438 -0.0340946 -0.00154189 -0.019204 -0.0340946 -0.0471886 -0.019204 -0.0404062 -0.0471886 -0.0330328 -0.0404062 -0.0324107 -0.0330328 -0.0176253 -0.0324107 -0.0228233 -0.0176253 -0.028799 -0.0228233 -0.0419478 -0.028799 -0.0448754 -0.0419478 -0.0584149 -0.0448754 -0.0538258 -0.0584149 -0.063396 -0.0538258 -0.0569551 -0.063396 -0.0625678 -0.0569551 -0.0569899 -0.0625678 -0.0596177 -0.0569899 -0.0551426 -0.0596177 -0.0557085 -0.0551426 -0.0518777 -0.0557085 -0.0511857 -0.0518777 -0.0474901 -0.0511857 -0.0461826 -0.0474901 -0.0422939 -0.0461826 -0.0408348 -0.0422939 -0.0366387 -0.0408348 -0.0353229 -0.0366387 -0.0308486 -0.0353229 -0.029825 -0.0308486 -0.0251605 -0.029825 -0.0244646 -0.0251605 -0.0197012 -0.0244646 -0.0192931 -0.0197012 -0.0145025 -0.0192931 -0.0143037 -0.0145025 -0.00953207 -0.0143037 -0.00945767 -0.00953207 -0.00472438 -0.00945767 -0.00470596 -0.00472438 0 -0.00470596 0 0 0.00472438 0 0.00470596 0.00472438 0.00953207 0.00470596 0.00945767 0.00953207 0.0145025 0.00945767 0.0143037 0.0145025 0.0197012 0.0143037 0.0192931 0.0197012 0.0251605 0.0192931 0.0244646 0.0251605 0.0308486 0.0244646 0.029825 0.0308486 0.0366387 0.029825 0.0353229 0.0366387 0.0422939 0.0353229 0.0408348 0.0422939 0.0474901 0.0408348 0.0461826 0.0474901 0.0518777 0.0461826 0.0511857 0.0518777 0.0551426 0.0511857 0.0557085 0.0551426 0.0569899 0.0557085 0.0596177 0.0569899 0.0569551 0.0596177 0.0625678 0.0569551 0.0538258 0.0625678 0.063396 0.0538258 0.0448754 0.063396 0.0584149 0.0448754 0.028799 0.0584149 0.0419478 0.028799 0.0176253 0.0419478 0.0228233 0.0176253 0.0330328 0.0228233 0.0324107 0.0330328 0.0471886 0.0324107 0.0404062 0.0471886 0.0340946 0.0404062 0.019204 0.0340946 0.0165438 0.019204 0.00154189 0.0165438 0.00646921 0.00154189 -0.00384603 0.00646921 0.00209894 -0.00384603 -0.00295706 0.00209894 6.4775e-17 -0.00295706 5.76345e-17 5.76345e-17 0.00295706 4.93897e-17 0.00817888 0.00295706 0.00384603 0.00817888 0.0148077 0.00384603 -0.00154189 0.0148077 0.0160299 -0.00154189 -0.019204 0.0160299 0.00128052 -0.019204 -0.0404062 0.00128052 -0.0294419 -0.0404062 -0.0324107 -0.0294419 -0.0317633 -0.0324107 -0.0228233 -0.0317633 -0.0319913 -0.0228233 -0.0419478 -0.0319913 -0.0604282 -0.0419478 -0.0584149 -0.0604282 -0.0742146 -0.0584149 -0.063396 -0.0742146 -0.0731857 -0.063396 -0.0625678 -0.0731857 -0.0677948 -0.0625678 -0.0596177 -0.0677948 -0.0616545 -0.0596177 -0.0557085 -0.0616545 -0.0556431 -0.0557085 -0.0511857 -0.0556431 -0.049932 -0.0511857 -0.0461826 -0.049932 -0.0444376 -0.0461826 -0.0408348 -0.0444376 -0.0390804 -0.0408348 -0.0353229 -0.0390804 -0.0338455 -0.0353229 -0.029825 -0.0338455 -0.028747 -0.029825 -0.0244646 -0.028747 -0.023787 -0.0244646 -0.0192931 -0.023787 -0.0189414 -0.0192931 -0.0143037 -0.0189414 -0.0141709 -0.0143037 -0.00945767 -0.0141709 -0.00943802 -0.00945767 -0.00470596 -0.00943802 -0.00471797 -0.00470596 0 -0.00471797 0 0 0.00470596 0 0.00471797 0.00470596 0.00945767 0.00471797 0.00943802 0.00945767 0.0143037 0.00943802 0.0141709 0.0143037 0.0192931 0.0141709 0.0189414 0.0192931 0.0244646 0.0189414 0.023787 0.0244646 0.029825 0.023787 0.028747 0.029825 0.0353229 0.028747 0.0338455 0.0353229 0.0408348 0.0338455 0.0390804 0.0408348 0.0461826 0.0390804 0.0444376 0.0461826 0.0511857 0.0444376 0.049932 0.0511857 0.0557085 0.049932 0.0556431 0.0557085 0.0596177 0.0556431 0.0616545 0.0596177 0.0625678 0.0616545 0.0677948 0.0625678 0.063396 0.0677948 0.0731857 0.063396 0.0584149 0.0731857 0.0742146 0.0584149 0.0419478 0.0742146 0.0604282 0.0419478 0.0228233 0.0604282 0.0319913 0.0228233 0.0324107 0.0319913 0.0317633 0.0324107 0.0404062 0.0317633 0.0294419 0.0404062 0.019204 0.0294419 -0.00128052 0.019204 0.00154189 -0.00128052 -0.0160299 0.00154189 -0.00384603 -0.0160299 -0.0148077 -0.00384603 -0.00295706 -0.0148077 -0.00817888 -0.00295706 5.76345e-17 -0.00817888 4.93897e-17 4.93897e-17 0.00817888 4.78085e-17