# vtk DataFile Version 3.0
#This file was generated by the deal.II library on 2017/9/27 at 13:18:50
ASCII
DATASET UNSTRUCTURED_GRID

POINTS 2688 double
-5.63207 0 0
-5.3974 0 0
-5.63207 0.0714286 0
-5.3974 0.0714286 0
-5.3974 0 0
-5.16273 0 0
-5.3974 0.0714286 0
-5.16273 0.0714286 0
-5.16273 0 0
-4.92806 0 0
-5.16273 0.0714286 0
-4.92806 0.0714286 0
-4.92806 0 0
-4.69339 0 0
-4.92806 0.0714286 0
-4.69339 0.0714286 0
-4.69339 0 0
-4.45872 0 0
-4.69339 0.0714286 0
-4.45872 0.0714286 0
-4.45872 0 0
-4.22405 0 0
-4.45872 0.0714286 0
-4.22405 0.0714286 0
-4.22405 0 0
-3.98938 0 0
-4.22405 0.0714286 0
-3.98938 0.0714286 0
-3.98938 0 0
-3.75472 0 0
-3.98938 0.0714286 0
-3.75472 0.0714286 0
-3.75472 0 0
-3.52005 0 0
-3.75472 0.0714286 0
-3.52005 0.0714286 0
-3.52005 0 0
-3.28538 0 0
-3.52005 0.0714286 0
-3.28538 0.0714286 0
-3.28538 0 0
-3.05071 0 0
-3.28538 0.0714286 0
-3.05071 0.0714286 0
-3.05071 0 0
-2.81604 0 0
-3.05071 0.0714286 0
-2.81604 0.0714286 0
-2.81604 0 0
-2.58137 0 0
-2.81604 0.0714286 0
-2.58137 0.0714286 0
-2.58137 0 0
-2.3467 0 0
-2.58137 0.0714286 0
-2.3467 0.0714286 0
-2.3467 0 0
-2.11203 0 0
-2.3467 0.0714286 0
-2.11203 0.0714286 0
-2.11203 0 0
-1.87736 0 0
-2.11203 0.0714286 0
-1.87736 0.0714286 0
-1.87736 0 0
-1.64269 0 0
-1.87736 0.0714286 0
-1.64269 0.0714286 0
-1.64269 0 0
-1.40802 0 0
-1.64269 0.0714286 0
-1.40802 0.0714286 0
-1.40802 0 0
-1.17335 0 0
-1.40802 0.0714286 0
-1.17335 0.0714286 0
-1.17335 0 0
-0.938679 0 0
-1.17335 0.0714286 0
-0.938679 0.0714286 0
-0.938679 0 0
-0.704009 0 0
-0.938679 0.0714286 0
-0.704009 0.0714286 0
-0.704009 0 0
-0.469339 0 0
-0.704009 0.0714286 0
-0.469339 0.0714286 0
-0.469339 0 0
-0.23467 0 0
-0.469339 0.0714286 0
-0.23467 0.0714286 0
-0.23467 0 0
0 0 0
-0.23467 0.0714286 0
0 0.0714286 0
0 0 0
0.23467 0 0
0 0.0714286 0
0.23467 0.0714286 0
0.23467 0 0
0.469339 0 0
0.23467 0.0714286 0
0.469339 0.0714286 0
0.469339 0 0
0.704009 0 0
0.469339 0.0714286 0
0.704009 0.0714286 0
0.704009 0 0
0.938679 0 0
0.704009 0.0714286 0
0.938679 0.0714286 0
0.938679 0 0
1.17335 0 0
0.938679 0.0714286 0
1.17335 0.0714286 0
1.17335 0 0
1.40802 0 0
1.17335 0.0714286 0
1.40802 0.0714286 0
1.40802 0 0
1.64269 0 0
1.40802 0.0714286 0
1.64269 0.0714286 0
1.64269 0 0
1.87736 0 0
1.64269 0.0714286 0
1.87736 0.0714286 0
1.87736 0 0
2.11203 0 0
1.87736 0.0714286 0
2.11203 0.0714286 0
2.11203 0 0
2.3467 0 0
2.11203 0.0714286 0
2.3467 0.0714286 0
2.3467 0 0
2.58137 0 0
2.3467 0.0714286 0
2.58137 0.0714286 0
2.58137 0 0
2.81604 0 0
2.58137 0.0714286 0
2.81604 0.0714286 0
2.81604 0 0
3.05071 0 0
2.81604 0.0714286 0
3.05071 0.0714286 0
3.05071 0 0
3.28538 0 0
3.05071 0.0714286 0
3.28538 0.0714286 0
3.28538 0 0
3.52005 0 0
3.28538 0.0714286 0
3.52005 0.0714286 0
3.52005 0 0
3.75472 0 0
3.52005 0.0714286 0
3.75472 0.0714286 0
3.75472 0 0
3.98938 0 0
3.75472 0.0714286 0
3.98938 0.0714286 0
3.98938 0 0
4.22405 0 0
3.98938 0.0714286 0
4.22405 0.0714286 0
4.22405 0 0
4.45872 0 0
4.22405 0.0714286 0
4.45872 0.0714286 0
4.45872 0 0
4.69339 0 0
4.45872 0.0714286 0
4.69339 0.0714286 0
4.69339 0 0
4.92806 0 0
4.69339 0.0714286 0
4.92806 0.0714286 0
4.92806 0 0
5.16273 0 0
4.92806 0.0714286 0
5.16273 0.0714286 0
5.16273 0 0
5.3974 0 0
5.16273 0.0714286 0
5.3974 0.0714286 0
5.3974 0 0
5.63207 0 0
5.3974 0.0714286 0
5.63207 0.0714286 0
-5.63207 0.0714286 0
-5.3974 0.0714286 0
-5.63207 0.142857 0
-5.3974 0.142857 0
-5.3974 0.0714286 0
-5.16273 0.0714286 0
-5.3974 0.142857 0
-5.16273 0.142857 0
-5.16273 0.0714286 0
-4.92806 0.0714286 0
-5.16273 0.142857 0
-4.92806 0.142857 0
-4.92806 0.0714286 0
-4.69339 0.0714286 0
-4.92806 0.142857 0
-4.69339 0.142857 0
-4.69339 0.0714286 0
-4.45872 0.0714286 0
-4.69339 0.142857 0
-4.45872 0.142857 0
-4.45872 0.0714286 0
-4.22405 0.0714286 0
-4.45872 0.142857 0
-4.22405 0.142857 0
-4.22405 0.0714286 0
-3.98938 0.0714286 0
-4.22405 0.142857 0
-3.98938 0.142857 0
-3.98938 0.0714286 0
-3.75472 0.0714286 0
-3.98938 0.142857 0
-3.75472 0.142857 0
-3.75472 0.0714286 0
-3.52005 0.0714286 0
-3.75472 0.142857 0
-3.52005 0.142857 0
-3.52005 0.0714286 0
-3.28538 0.0714286 0
-3.52005 0.142857 0
-3.28538 0.142857 0
-3.28538 0.0714286 0
-3.05071 0.0714286 0
-3.28538 0.142857 0
-3.05071 0.142857 0
-3.05071 0.0714286 0
-2.81604 0.0714286 0
-3.05071 0.142857 0
-2.81604 0.142857 0
-2.81604 0.0714286 0
-2.58137 0.0714286 0
-2.81604 0.142857 0
-2.58137 0.142857 0
-2.58137 0.0714286 0
-2.3467 0.0714286 0
-2.58137 0.142857 0
-2.3467 0.142857 0
-2.3467 0.0714286 0
-2.11203 0.0714286 0
-2.3467 0.142857 0
-2.11203 0.142857 0
-2.11203 0.0714286 0
-1.87736 0.0714286 0
-2.11203 0.142857 0
-1.87736 0.142857 0
-1.87736 0.0714286 0
-1.64269 0.0714286 0
-1.87736 0.142857 0
-1.64269 0.142857 0
-1.64269 0.0714286 0
-1.40802 0.0714286 0
-1.64269 0.142857 0
-1.40802 0.142857 0
-1.40802 0.0714286 0
-1.17335 0.0714286 0
-1.40802 0.142857 0
-1.17335 0.142857 0
-1.17335 0.0714286 0
-0.938679 0.0714286 0
-1.17335 0.142857 0
-0.938679 0.142857 0
-0.938679 0.0714286 0
-0.704009 0.0714286 0
-0.938679 0.142857 0
-0.704009 0.142857 0
-0.704009 0.0714286 0
-0.469339 0.0714286 0
-0.704009 0.142857 0
-0.469339 0.142857 0
-0.469339 0.0714286 0
-0.23467 0.0714286 0
-0.469339 0.142857 0
-0.23467 0.142857 0
-0.23467 0.0714286 0
0 0.0714286 0
-0.23467 0.142857 0
0 0.142857 0
0 0.0714286 0
0.23467 0.0714286 0
0 0.142857 0
0.23467 0.142857 0
0.23467 0.0714286 0
0.469339 0.0714286 0
0.23467 0.142857 0
0.469339 0.142857 0
0.469339 0.0714286 0
0.704009 0.0714286 0
0.469339 0.142857 0
0.704009 0.142857 0
0.704009 0.0714286 0
0.938679 0.0714286 0
0.704009 0.142857 0
0.938679 0.142857 0
0.938679 0.0714286 0
1.17335 0.0714286 0
0.938679 0.142857 0
1.17335 0.142857 0
1.17335 0.0714286 0
1.40802 0.0714286 0
1.17335 0.142857 0
1.40802 0.142857 0
1.40802 0.0714286 0
1.64269 0.0714286 0
1.40802 0.142857 0
1.64269 0.142857 0
1.64269 0.0714286 0
1.87736 0.0714286 0
1.64269 0.142857 0
1.87736 0.142857 0
1.87736 0.0714286 0
2.11203 0.0714286 0
1.87736 0.142857 0
2.11203 0.142857 0
2.11203 0.0714286 0
2.3467 0.0714286 0
2.11203 0.142857 0
2.3467 0.142857 0
2.3467 0.0714286 0
2.58137 0.0714286 0
2.3467 0.142857 0
2.58137 0.142857 0
2.58137 0.0714286 0
2.81604 0.0714286 0
2.58137 0.142857 0
2.81604 0.142857 0
2.81604 0.0714286 0
3.05071 0.0714286 0
2.81604 0.142857 0
3.05071 0.142857 0
3.05071 0.0714286 0
3.28538 0.0714286 0
3.05071 0.142857 0
3.28538 0.142857 0
3.28538 0.0714286 0
3.52005 0.0714286 0
3.28538 0.142857 0
3.52005 0.142857 0
3.52005 0.0714286 0
3.75472 0.0714286 0
3.52005 0.142857 0
3.75472 0.142857 0
3.75472 0.0714286 0
3.98938 0.0714286 0
3.75472 0.142857 0
3.98938 0.142857 0
3.98938 0.0714286 0
4.22405 0.0714286 0
3.98938 0.142857 0
4.22405 0.142857 0
4.22405 0.0714286 0
4.45872 0.0714286 0
4.22405 0.142857 0
4.45872 0.142857 0
4.45872 0.0714286 0
4.69339 0.0714286 0
4.45872 0.142857 0
4.69339 0.142857 0
4.69339 0.0714286 0
4.92806 0.0714286 0
4.69339 0.142857 0
4.92806 0.142857 0
4.92806 0.0714286 0
5.16273 0.0714286 0
4.92806 0.142857 0
5.16273 0.142857 0
5.16273 0.0714286 0
5.3974 0.0714286 0
5.16273 0.142857 0
5.3974 0.142857 0
5.3974 0.0714286 0
5.63207 0.0714286 0
5.3974 0.142857 0
5.63207 0.142857 0
-5.63207 0.142857 0
-5.3974 0.142857 0
-5.63207 0.214286 0
-5.3974 0.214286 0
-5.3974 0.142857 0
-5.16273 0.142857 0
-5.3974 0.214286 0
-5.16273 0.214286 0
-5.16273 0.142857 0
-4.92806 0.142857 0
-5.16273 0.214286 0
-4.92806 0.214286 0
-4.92806 0.142857 0
-4.69339 0.142857 0
-4.92806 0.214286 0
-4.69339 0.214286 0
-4.69339 0.142857 0
-4.45872 0.142857 0
-4.69339 0.214286 0
-4.45872 0.214286 0
-4.45872 0.142857 0
-4.22405 0.142857 0
-4.45872 0.214286 0
-4.22405 0.214286 0
-4.22405 0.142857 0
-3.98938 0.142857 0
-4.22405 0.214286 0
-3.98938 0.214286 0
-3.98938 0.142857 0
-3.75472 0.142857 0
-3.98938 0.214286 0
-3.75472 0.214286 0
-3.75472 0.142857 0
-3.52005 0.142857 0
-3.75472 0.214286 0
-3.52005 0.214286 0
-3.52005 0.142857 0
-3.28538 0.142857 0
-3.52005 0.214286 0
-3.28538 0.214286 0
-3.28538 0.142857 0
-3.05071 0.142857 0
-3.28538 0.214286 0
-3.05071 0.214286 0
-3.05071 0.142857 0
-2.81604 0.142857 0
-3.05071 0.214286 0
-2.81604 0.214286 0
-2.81604 0.142857 0
-2.58137 0.142857 0
-2.81604 0.214286 0
-2.58137 0.214286 0
-2.58137 0.142857 0
-2.3467 0.142857 0
-2.58137 0.214286 0
-2.3467 0.214286 0
-2.3467 0.142857 0
-2.11203 0.142857 0
-2.3467 0.214286 0
-2.11203 0.214286 0
-2.11203 0.142857 0
-1.87736 0.142857 0
-2.11203 0.214286 0
-1.87736 0.214286 0
-1.87736 0.142857 0
-1.64269 0.142857 0
-1.87736 0.214286 0
-1.64269 0.214286 0
-1.64269 0.142857 0
-1.40802 0.142857 0
-1.64269 0.214286 0
-1.40802 0.214286 0
-1.40802 0.142857 0
-1.17335 0.142857 0
-1.40802 0.214286 0
-1.17335 0.214286 0
-1.17335 0.142857 0
-0.938679 0.142857 0
-1.17335 0.214286 0
-0.938679 0.214286 0
-0.938679 0.142857 0
-0.704009 0.142857 0
-0.938679 0.214286 0
-0.704009 0.214286 0
-0.704009 0.142857 0
-0.469339 0.142857 0
-0.704009 0.214286 0
-0.469339 0.214286 0
-0.469339 0.142857 0
-0.23467 0.142857 0
-0.469339 0.214286 0
-0.23467 0.214286 0
-0.23467 0.142857 0
0 0.142857 0
-0.23467 0.214286 0
0 0.214286 0
0 0.142857 0
0.23467 0.142857 0
0 0.214286 0
0.23467 0.214286 0
0.23467 0.142857 0
0.469339 0.142857 0
0.23467 0.214286 0
0.469339 0.214286 0
0.469339 0.142857 0
0.704009 0.142857 0
0.469339 0.214286 0
0.704009 0.214286 0
0.704009 0.142857 0
0.938679 0.142857 0
0.704009 0.214286 0
0.938679 0.214286 0
0.938679 0.142857 0
1.17335 0.142857 0
0.938679 0.214286 0
1.17335 0.214286 0
1.17335 0.142857 0
1.40802 0.142857 0
1.17335 0.214286 0
1.40802 0.214286 0
1.40802 0.142857 0
1.64269 0.142857 0
1.40802 0.214286 0
1.64269 0.214286 0
1.64269 0.142857 0
1.87736 0.142857 0
1.64269 0.214286 0
1.87736 0.214286 0
1.87736 0.142857 0
2.11203 0.142857 0
1.87736 0.214286 0
2.11203 0.214286 0
2.11203 0.142857 0
2.3467 0.142857 0
2.11203 0.214286 0
2.3467 0.214286 0
2.3467 0.142857 0
2.58137 0.142857 0
2.3467 0.214286 0
2.58137 0.214286 0
2.58137 0.142857 0
2.81604 0.142857 0
2.58137 0.214286 0
2.81604 0.214286 0
2.81604 0.142857 0
3.05071 0.142857 0
2.81604 0.214286 0
[...]
POINT_DATA 2688
SCALARS x1_displacement double 1
LOOKUP_TABLE default
2.27984e-16 -0.027258 1.82753e-16 -0.0267276 -0.027258 -0.0533985 -0.0267276 -0.0525067 -0.0533985 -0.0754589 -0.0525067 -0.0745235 -0.0754589 -0.0873945 -0.0745235 -0.0867456 -0.0873945 -0.0814673 -0.0867456 -0.0812011 -0.0814673 -0.0569928 -0.0812011 -0.0569326 -0.0569928 -0.0314505 -0.0569326 -0.0316042 -0.0314505 -0.0226826 -0.0316042 -0.0232585 -0.0226826 -0.0301199 -0.0232585 -0.0310697 -0.0301199 -0.0453459 -0.0310697 -0.0463951 -0.0453459 -0.0611666 -0.0463951 -0.0620591 -0.0611666 -0.0734667 -0.0620591 -0.074088 -0.0734667 -0.0806146 -0.074088 -0.0809698 -0.0806146 -0.0825325 -0.0809698 -0.082682 -0.0825325 -0.0799691 -0.082682 -0.0799829 -0.0799691 -0.0740217 -0.0799829 -0.0739596 -0.0740217 -0.0658344 -0.0739596 -0.0657404 -0.0658344 -0.0564091 -0.0657404 -0.0563118 -0.0564091 -0.0465071 -0.0563118 -0.0464224 -0.0465071 -0.036624 -0.0464224 -0.0365585 -0.036624 -0.0270175 -0.0365585 -0.0269719 -0.0270175 -0.0177601 -0.0269719 -0.0177322 -0.0177601 -0.00879769 -0.0177322 -0.00878459 -0.00879769 0 -0.00878459 0 0 0.00879769 0 0.00878459 0.00879769 0.0177601 0.00878459 0.0177322 0.0177601 0.0270175 0.0177322 0.0269719 0.0270175 0.036624 0.0269719 0.0365585 0.036624 0.0465071 0.0365585 0.0464224 0.0465071 0.0564091 0.0464224 0.0563118 0.0564091 0.0658344 0.0563118 0.0657404 0.0658344 0.0740217 0.0657404 0.0739596 0.0740217 0.0799691 0.0739596 0.0799829 0.0799691 0.0825325 0.0799829 0.082682 0.0825325 0.0806146 0.082682 0.0809698 0.0806146 0.0734667 0.0809698 0.074088 0.0734667 0.0611666 0.074088 0.0620591 0.0611666 0.0453459 0.0620591 0.0463951 0.0453459 0.0301199 0.0463951 0.0310697 0.0301199 0.0226826 0.0310697 0.0232585 0.0226826 0.0314505 0.0232585 0.0316042 0.0314505 0.0569928 0.0316042 0.0569326 0.0569928 0.0814673 0.0569326 0.0812011 0.0814673 0.0873945 0.0812011 0.0867456 0.0873945 0.0754589 0.0867456 0.0745235 0.0754589 0.0533985 0.0745235 0.0525067 0.0533985 0.027258 0.0525067 0.0267276 0.027258 2.27984e-16 0.0267276 1.82753e-16 1.82753e-16 -0.0267276 1.34923e-16 -0.0251947 -0.0267276 -0.0525067 -0.0251947 -0.0499031 -0.0525067 -0.0745235 -0.0499031 -0.0717589 -0.0745235 -0.0867456 -0.0717589 -0.0848331 -0.0867456 -0.0812011 -0.0848331 -0.0804707 -0.0812011 -0.0569326 -0.0804707 -0.0567676 -0.0569326 -0.0316042 -0.0567676 -0.0320145 -0.0316042 -0.0232585 -0.0320145 -0.0249412 -0.0232585 -0.0310697 -0.0249412 -0.0338328 -0.0310697 -0.0463951 -0.0338328 -0.0493897 -0.0463951 -0.0620591 -0.0493897 -0.0645586 -0.0620591 -0.074088 -0.0645586 -0.0758 -0.074088 -0.0809698 -0.0758 -0.0819325 -0.0809698 -0.082682 -0.0819325 -0.0830746 -0.082682 -0.0799829 -0.0830746 -0.0800035 -0.0799829 -0.0739596 -0.0800035 -0.0737745 -0.0739596 -0.0657404 -0.0737745 -0.0654711 -0.0657404 -0.0563118 -0.0654711 -0.0560369 -0.0563118 -0.0464224 -0.0560369 -0.046185 -0.0464224 -0.0365585 -0.046185 -0.036376 -0.0365585 -0.0269719 -0.036376 -0.0268454 -0.0269719 -0.0177322 -0.0268454 -0.017655 -0.0177322 -0.00878459 -0.017655 -0.00874856 -0.00878459 0 -0.00874856 0 0 0.00878459 0 0.00874856 0.00878459 0.0177322 0.00874856 0.017655 0.0177322 0.0269719 0.017655 0.0268454 0.0269719 0.0365585 0.0268454 0.036376 0.0365585 0.0464224 0.036376 0.046185 0.0464224 0.0563118 0.046185 0.0560369 0.0563118 0.0657404 0.0560369 0.0654711 0.0657404 0.0739596 0.0654711 0.0737745 0.0739596 0.0799829 0.0737745 0.0800035 0.0799829 0.082682 0.0800035 0.0830746 0.082682 0.0809698 0.0830746 0.0819325 0.0809698 0.074088 0.0819325 0.0758 0.074088 0.0620591 0.0758 0.0645586 0.0620591 0.0463951 0.0645586 0.0493897 0.0463951 0.0310697 0.0493897 0.0338328 0.0310697 0.0232585 0.0338328 0.0249412 0.0232585 0.0316042 0.0249412 0.0320145 0.0316042 0.0569326 0.0320145 0.0567676 0.0569326 0.0812011 0.0567676 0.0804707 0.0812011 0.0867456 0.0804707 0.0848331 0.0867456 0.0745235 0.0848331 0.0717589 0.0745235 0.0525067 0.0717589 0.0499031 0.0525067 0.0267276 0.0499031 0.0251947 0.0267276 1.82753e-16 0.0251947 1.34923e-16 1.34923e-16 -0.0251947 1.15309e-16 -0.0227408 -0.0251947 -0.0499031 -0.0227408 -0.0456854 -0.0499031 -0.0717589 -0.0456854 -0.0672163 -0.0717589 -0.0848331 -0.0672163 -0.0816797 -0.0848331 -0.0804707 -0.0816797 -0.0793261 -0.0804707 -0.0567676 -0.0793261 -0.0565134 -0.0567676 -0.0320145 -0.0565134 -0.0326535 -0.0320145 -0.0249412 -0.0326535 -0.0277075 -0.0249412 -0.0338328 -0.0277075 -0.0383213 -0.0338328 -0.0493897 -0.0383213 -0.0541481 -0.0493897 -0.0645586 -0.0541481 -0.0684485 -0.0645586 -0.0758 -0.0684485 -0.0784197 -0.0758 -0.0819325 -0.0784197 -0.0833828 -0.0819325 -0.0830746 -0.0833828 -0.0836496 -0.0830746 -0.0800035 -0.0836496 -0.0800126 -0.0800035 -0.0737745 -0.0800126 -0.0734739 -0.0737745 -0.0654711 -0.0734739 -0.0650466 -0.0654711 -0.0560369 -0.0650466 -0.0556081 -0.0560369 -0.046185 -0.0556081 -0.0458172 -0.046185 -0.036376 -0.0458172 -0.0360947 -0.036376 -0.0268454 -0.0360947 -0.0266514 -0.0268454 -0.017655 -0.0266514 -0.017537 -0.017655 -0.00874856 -0.017537 -0.00869365 -0.00874856 0 -0.00869365 0 0 0.00874856 0 0.00869365 0.00874856 0.017655 0.00869365 0.017537 0.017655 0.0268454 0.017537 0.0266514 0.0268454 0.036376 0.0266514 0.0360947 0.036376 0.046185 0.0360947 0.0458172 0.046185 0.0560369 0.0458172 0.0556081 0.0560369 0.0654711 0.0556081 0.0650466 0.0654711 0.0737745 0.0650466 0.0734739 0.0737745 0.0800035 0.0734739 0.0800126 0.0800035 0.0830746 0.0800126 0.0836496 0.0830746 0.0819325 0.0836496 0.0833828 0.0819325 0.0758 0.0833828 0.0784197 0.0758 0.0645586 0.0784197 0.0684485 0.0645586 0.0493897 0.0684485 0.0541481 0.0493897 0.0338328 0.0541481 0.0383213 0.0338328 0.0249412 0.0383213 0.0277075 0.0249412 0.0320145 0.0277075 0.0326535 0.0320145 0.0567676 0.0326535 0.0565134 0.0567676 0.0804707 0.0565134 0.0793261 0.0804707 0.0848331 0.0793261 0.0816797 0.0848331 0.0717589 0.0816797 0.0672163 0.0717589 0.0499031 0.0672163 0.0456854 0.0499031 0.0251947 0.0456854 0.0227408 0.0251947 1.34923e-16 0.0227408 1.15309e-16 1.15309e-16 -0.0227408 1.07648e-16 -0.0194199 -0.0227408 -0.0456854 -0.0194199 -0.0398691 -0.0456854 -0.0672163 -0.0398691 -0.0607848 -0.0672163 -0.0816797 -0.0607848 -0.0771134 -0.0816797 -0.0793261 -0.0771134 -0.0777022 -0.0793261 -0.0565134 -0.0777022 -0.0561811 -0.0565134 -0.0326535 -0.0561811 -0.0335959 -0.0326535 -0.0277075 -0.0335959 -0.0317127 -0.0277075 -0.0383213 -0.0317127 -0.0445918 -0.0383213 -0.0541481 -0.0445918 -0.0605536 -0.0541481 -0.0684485 -0.0605536 -0.0735208 -0.0684485 -0.0784197 -0.0735208 -0.0817487 -0.0784197 -0.0833828 -0.0817487 -0.0851782 -0.0833828 -0.0836496 -0.0851782 -0.0843232 -0.0836496 -0.0800126 -0.0843232 -0.0799722 -0.0800126 -0.0734739 -0.0799722 -0.07305 -0.0734739 -0.0650466 -0.07305 -0.0644768 -0.0650466 -0.0556081 -0.0644768 -0.0550436 -0.0556081 -0.0458172 -0.0550436 -0.0453388 -0.0458172 -0.0360947 -0.0453388 -0.0357325 -0.0360947 -0.0266514 -0.0357325 -0.0264038 -0.0266514 -0.017537 -0.0264038 -0.0173877 -0.017537 -0.00869365 -0.0173877 -0.00862456 -0.00869365 0 -0.00862456 0 0 0.00869365 0 0.00862456 0.00869365 0.017537 0.00862456 0.0173877 0.017537 0.0266514 0.0173877 0.0264038 0.0266514 0.0360947 0.0264038 0.0357325 0.0360947 0.0458172 0.0357325 0.0453388 0.0458172 0.0556081 0.0453388 0.0550436 0.0556081 0.0650466 0.0550436 0.0644768 0.0650466 0.0734739 0.0644768 0.07305 0.0734739 0.0800126 0.07305 0.0799722 0.0800126 0.0836496 0.0799722 0.0843232 0.0836496 0.0833828 0.0843232 0.0851782 0.0833828 0.0784197 0.0851782 0.0817487 0.0784197 0.0684485 0.0817487 0.0735208 0.0684485 0.0541481 0.0735208 0.0605536 0.0541481 0.0383213 0.0605536 0.0445918 0.0383213 0.0277075 0.0445918 0.0317127 0.0277075 0.0326535 0.0317127 0.0335959 0.0326535 0.0565134 0.0335959 0.0561811 0.0565134 0.0793261 0.0561811 0.0777022 0.0793261 0.0816797 0.0777022 0.0771134 0.0816797 0.0672163 0.0771134 0.0607848 0.0672163 0.0456854 0.0607848 0.0398691 0.0456854 0.0227408 0.0398691 0.0194199 0.0227408 1.15309e-16 0.0194199 1.07648e-16 1.07648e-16 -0.0194199 9.97849e-17 -0.0152846 -0.0194199 -0.0398691 -0.0152846 -0.0324305 -0.0398691 -0.0607848 -0.0324305 -0.0522235 -0.0607848 -0.0771134 -0.0522235 -0.070769 -0.0771134 -0.0777022 -0.070769 -0.0754168 -0.0777022 -0.0561811 -0.0754168 -0.0557788 -0.0561811 -0.0335959 -0.0557788 -0.0350232 -0.0335959 -0.0317127 -0.0350232 -0.0372941 -0.0317127 -0.0445918 -0.0372941 -0.0528224 -0.0445918 -0.0605536 -0.0528224 -0.0685215 -0.0605536 -0.0735208 -0.0685215 -0.0795601 -0.0735208 -0.0817487 -0.0795601 -0.0855741 -0.0817487 -0.0851782 -0.0855741 -0.0871604 -0.0851782 -0.0843232 -0.0871604 -0.084996 -0.0843232 -0.0799722 -0.084996 -0.0798301 -0.0799722 -0.07305 -0.0798301 -0.0724844 -0.07305 -0.0644768 -0.0724844 -0.0637643 -0.0644768 -0.0550436 -0.0637643 -0.0543572 -0.0550436 -0.0453388 -0.0543572 -0.044768 -0.0453388 -0.0357325 -0.044768 -0.0353072 -0.0357325 -0.0264038 -0.0353072 -0.0261172 -0.0264038 -0.0173877 -0.0261172 -0.0172171 -0.0173877 -0.00862456 -0.0172171 -0.00854641 -0.00862456 0 -0.00854641 0 0 0.00862456 0 0.00854641 0.00862456 0.0173877 0.00854641 0.0172171 0.0173877 0.0264038 0.0172171 0.0261172 0.0264038 0.0357325 0.0261172 0.0353072 0.0357325 0.0453388 0.0353072 0.044768 0.0453388 0.0550436 0.044768 0.0543572 0.0550436 0.0644768 0.0543572 0.0637643 0.0644768 0.07305 0.0637643 0.0724844 0.07305 0.0799722 0.0724844 0.0798301 0.0799722 0.0843232 0.0798301 0.084996 0.0843232 0.0851782 0.084996 0.0871604 0.0851782 0.0817487 0.0871604 0.0855741 0.0817487 0.0735208 0.0855741 0.0795601 0.0735208 0.0605536 0.0795601 0.0685215 0.0605536 0.0445918 0.0685215 0.0528224 0.0445918 0.0317127 0.0528224 0.0372941 0.0317127 0.0335959 0.0372941 0.0350232 0.0335959 0.0561811 0.0350232 0.0557788 0.0561811 0.0777022 0.0557788 0.0754168 0.0777022 0.0771134 0.0754168 0.070769 0.0771134 0.0607848 0.070769 0.0522235 0.0607848 0.0398691 0.0522235 0.0324305 0.0398691 0.0194199 0.0324305 0.0152846 0.0194199 1.07648e-16 0.0152846 9.97849e-17 9.97849e-17 -0.0152846 9.39565e-17 -0.0104132 -0.0152846 -0.0324305 -0.0104132 -0.0233618 -0.0324305 -0.0522235 -0.0233618 -0.0412031 -0.0522235 -0.070769 -0.0412031 -0.0620682 -0.070769 -0.0754168 -0.0620682 -0.0721376 -0.0754168 -0.0557788 -0.0721376 -0.055313 -0.0557788 -0.0350232 -0.055313 -0.0372598 -0.0350232 -0.0372941 -0.0372598 -0.0449968 -0.0372941 -0.0528224 -0.0449968 -0.0632809 -0.0528224 -0.0685215 -0.0632809 -0.0779557 -0.0685215 -0.0795601 -0.0779557 -0.0863249 -0.0795601 -0.0855741 -0.0863249 -0.0896672 -0.0855741 -0.0871604 -0.0896672 -0.0891602 -0.0871604 -0.084996 -0.0891602 -0.085558 -0.084996 -0.0798301 -0.085558 -0.0795252 -0.0798301 -0.0724844 -0.0795252 -0.0717516 -0.0724844 -0.0637643 -0.0717516 -0.0629074 -0.0637643 -0.0543572 -0.0629074 -0.0535607 -0.0543572 -0.044768 -0.0535607 -0.0441224 -0.044768 -0.0353072 -0.0441224 -0.0348366 -0.0353072 -0.0261172 -0.0348366 -0.0258069 -0.0261172 -0.0172171 -0.0258069 -0.017036 -0.0172171 -0.00854641 -0.017036 -0.00846466 -0.00854641 0 -0.00846466 0 0 0.00854641 0 0.00846466 0.00854641 0.0172171 0.00846466 0.017036 0.0172171 0.0261172 0.017036 0.0258069 0.0261172 0.0353072 0.0258069 0.0348366 0.0353072 0.044768 0.0348366 0.0441224 0.044768 0.0543572 0.0441224 0.0535607 0.0543572 0.0637643 0.0535607 0.0629074 0.0637643 0.0724844 0.0629074 0.0717516 0.0724844 0.0798301 0.0717516 0.0795252 0.0798301 0.084996 0.0795252 0.085558 0.084996 0.0871604 0.085558 0.0891602 0.0871604 0.0855741 0.0891602 0.0896672 0.0855741 0.0795601 0.0896672 0.0863249 0.0795601 0.0685215 0.0863249 0.0779557 0.0685215 0.0528224 0.0779557 0.0632809 0.0528224 0.0372941 0.0632809 0.0449968 0.0372941 0.0350232 0.0449968 0.0372598 0.0350232 0.0557788 0.0372598 0.055313 0.0557788 0.0754168 0.055313 0.0721376 0.0754168 0.070769 0.0721376 0.0620682 0.070769 0.0522235 0.0620682 0.0412031 0.0522235 0.0324305 0.0412031 0.0233618 0.0324305 0.0152846 0.0233618 0.0104132 0.0152846 9.97849e-17 0.0104132 9.39565e-17 9.39565e-17 -0.0104132 8.18333e-17 -0.00492992 -0.0104132 -0.0233618 -0.00492992 -0.0127347 -0.0233618 -0.0412031 -0.0127347 -0.0273659 -0.0412031 -0.0620682 -0.0273659 -0.0501775 -0.0620682 -0.0721376 -0.0501775 -0.0673085 -0.0721376 -0.055313 -0.0673085 -0.0547903 -0.055313 -0.0372598 -0.0547903 -0.0408485 -0.0372598 -0.0449968 -0.0408485 -0.055622 -0.0449968 -0.0632809 -0.055622 -0.0762745 -0.0632809 -0.0779557 -0.0762745 -0.0886928 -0.0779557 -0.0863249 -0.0886928 -0.0935322 -0.0863249 -0.0896672 -0.0935322 -0.093787 -0.0896672 -0.0891602 -0.093787 -0.091002 -0.0891602 -0.085558 -0.091002 -0.0858937 -0.085558 -0.0795252 -0.0858937 -0.0789914 -0.0795252 -0.0717516 -0.0789914 -0.0708227 -0.0717516 -0.0629074 -0.0708227 -0.061902 -0.0629074 -0.0535607 -0.061902 -0.0526648 -0.0535607 -0.0441224 -0.0526648 -0.0434192 -0.0441224 -0.0348366 -0.0434192 -0.0343392 -0.0348366 -0.0258069 -0.0343392 -0.0254884 -0.0258069 -0.017036 -0.0254884 -0.0168555 -0.017036 -0.00846466 -0.0168555 -0.00838502 -0.00846466 0 -0.00838502 0 0 0.00846466 0 0.00838502 0.00846466 0.017036 0.00838502 0.0168555 0.017036 0.0258069 0.0168555 0.0254884 0.0258069 0.0348366 0.0254884 0.0343392 0.0348366 0.0441224 0.0343392 0.0434192 0.0441224 0.0535607 0.0434192 0.0526648 0.0535607 0.0629074 0.0526648 0.061902 0.0629074 0.0717516 0.061902 0.0708227 0.0717516 0.0795252 0.0708227 0.0789914 0.0795252 0.085558 0.0789914 0.0858937 0.085558 0.0891602 0.0858937 0.091002 0.0891602 0.0896672 0.091002 0.093787 0.0896672 0.0863249 0.093787 0.0935322 0.0863249 0.0779557 0.0935322 0.0886928 0.0779557 0.0632809 0.0886928 0.0762745 0.0632809 0.0449968 0.0762745 0.055622 0.0449968 0.0372598 0.055622 0.0408485 0.0372598 0.055313 0.0408485 0.0547903 0.055313 0.0721376 0.0547903 0.0673085 0.0721376 0.0620682 0.0673085 0.0501775 0.0620682 0.0412031 0.0501775 0.0273659 0.0412031 0.0233618 0.0273659 0.0127347 0.0233618 0.0104132 0.0127347 0.00492992 0.0104132 9.39565e-17 0.00492992 8.18333e-17 8.18333e-17 -0.00492992 7.69424e-17 0.000988356 -0.00492992 -0.0127347 0.000988356 -0.00077262 -0.0127347 -0.0273659 -0.00077262 -0.0104386 -0.0273659 -0.0501775 -0.0104386 -0.0339546 -0.0501775 -0.0673085 -0.0339546 -0.0600078 -0.0673085 -0.0547903 -0.0600078 -0.0542175 -0.0547903 -0.0408485 -0.0542175 -0.0466938 -0.0408485 -0.055622 -0.0466938 -0.0702909 -0.055622 -0.0762745 -0.0702909 -0.0920472 -0.0762745 -0.0886928 -0.0920472 -0.100434 -0.0886928 -0.0935322 -0.100434 -0.100852 -0.0935322 -0.093787 -0.100852 -0.0976848 -0.093787 -0.091002 -0.0976848 -0.0925076 -0.091002 -0.0858937 -0.0925076 -0.0858859 -0.0858937 -0.0789914 -0.0858859 -0.0781616 -0.0789914 -0.0708227 -0.0781616 -0.0696681 -0.0708227 -0.061902 -0.0696681 -0.0607446 -0.061902 -0.0526648 -0.0607446 -0.0516812 -0.0526648 -0.0434192 -0.0516812 -0.0426769 -0.0434192 -0.0343392 -0.0426769 -0.033834 -0.0343392 -0.0254884 -0.033834 -0.0251782 -0.0254884 -0.0168555 -0.0251782 -0.016687 -0.0168555 -0.00838502 -0.016687 -0.00831341 -0.00838502 0 -0.00831341 0 0 0.00838502 0 0.00831341 0.00838502 0.0168555 0.00831341 0.016687 0.0168555 0.0254884 0.016687 0.0251782 0.0254884 0.0343392 0.0251782 0.033834 0.0343392 0.0434192 0.033834 0.0426769 0.0434192 0.0526648 0.0426769 0.0516812 0.0526648 0.061902 0.0516812 0.0607446 0.061902 0.0708227 0.0607446 0.0696681 0.0708227 0.0789914 0.0696681 0.0781616 0.0789914 0.0858937 0.0781616 0.0858859 0.0858937 0.091002 0.0858859 0.0925076 0.091002 0.093787 0.0925076 0.0976848 0.093787 0.0935322 0.0976848 0.100852 0.0935322 0.0886928 0.100852 0.100434 0.0886928 0.0762745 0.100434 0.0920472 0.0762745 0.055622 0.0920472 0.0702909 0.055622 0.0408485 0.0702909 0.0466938 0.0408485 0.0547903 0.0466938 0.0542175 0.0547903 0.0673085 0.0542175 0.0600078 0.0673085 0.0501775 0.0600078 0.0339546 0.0501775 0.0273659 0.0339546 0.0104386 0.0273659 0.0127347 0.0104386 0.00077262 0.0127347 0.00492992 0.00077262 -0.000988356 0.00492992 8.18333e-17 -0.000988356 7.69424e-17 7.69424e-17 0.000988356 7.29043e-17 0.00713155 0.000988356 -0.00077262 0.00713155 0.0120939 -0.00077262 -0.0104386 0.0120939 0.00955876 -0.0104386 -0.0339546 0.00955876 -0.0119094 -0.0339546 -0.0600078 -0.0119094 -0.0486814 -0.0600078 -0.0542175 -0.0486814 -0.053602 -0.0542175 -0.0466938 -0.053602 -0.0563323 -0.0466938 -0.0702909 -0.0563323 -0.0904996 -0.0702909 -0.0920472 -0.0904996 -0.110578 -0.0920472 -0.100434 -0.110578 -0.112688 -0.100434 -0.100852 -0.112688 -0.107926 -0.100852 -0.0976848 -0.107926 -0.101111 -0.0976848 -0.0925076 -0.101111 -0.0934986 -0.0925076 -0.0858859 -0.0934986 -0.0854183 -0.0858859 -0.0781616 -0.0854183 -0.0769698 -0.0781616 -0.0696681 -0.0769698 -0.0682601 -0.0696681 -0.0607446 -0.0682601 -0.0594333 -0.0607446 -0.0516812 -0.0594333 -0.0506232 -0.0516812 -0.0426769 -0.0506232 -0.0419155 -0.0426769 -0.033834 -0.0419155 -0.0333415 -0.033834 -0.0251782 -0.0333415 -0.0248933 -0.0251782 -0.016687 -0.0248933 -0.0165427 -0.016687 -0.00831341 -0.0165427 -0.00825589 -0.00831341 0 -0.00825589 0 0 0.00831341 0 0.00825589 0.00831341 0.016687 0.00825589 0.0165427 0.016687 0.0251782 0.0165427 0.0248933 0.0251782 0.033834 0.0248933 0.0333415 0.033834 0.0426769 0.0333415 0.0419155 0.0426769 0.0516812 0.0419155 0.0506232 0.0516812 0.0607446 0.0506232 0.0594333 0.0607446 0.0696681 0.0594333 0.0682601 0.0696681 0.0781616 0.0682601 0.0769698 0.0781616 0.0858859 0.0769698 0.0854183 0.0858859 0.0925076 0.0854183 0.0934986 0.0925076 0.0976848 0.0934986 0.101111 0.0976848 0.100852 0.101111 0.107926 0.100852 0.100434 0.107926 0.112688 0.100434 0.0920472 0.112688 0.110578 0.0920472 0.0702909 0.110578 0.0904996 0.0702909 0.0466938 0.0904996 0.0563323 0.0466938 0.0542175 0.0563323 0.053602 0.0542175 0.0600078 0.053602 0.0486814 0.0600078 0.0339546 0.0486814 0.0119094 0.0339546 0.0104386 0.0119094 -0.00955876 0.0104386 0.00077262 -0.00955876 -0.0120939 0.00077262 -0.000988356 -0.0120939 -0.00713155 -0.000988356 7.69424e-17 -0.00713155 7.29043e-17 7.29043e-17 0.00713155 7.22815e-17 0.0132952 0.00713155 0.0120939 0.0132952 0.0252527 0.0120939 0.00955876 0.0252527 0.0319526 0.00955876 -0.0119094 0.0319526 0.0176954 -0.0119094 -0.0486814 0.0176954 -0.0305857 -0.0486814 -0.053602 -0.0305857 -0.0529523 -0.053602 -0.0563323 -0.0529523 -0.0725001 -0.0563323 -0.0904996 -0.0725001 -0.118043 -0.0904996 -0.110578 -0.118043 -0.131219 -0.110578 -0.112688 -0.131219 -0.12479 -0.112688 -0.107926 -0.12479 -0.114399 -0.107926 -0.101111 -0.114399 -0.103814 -0.101111 -0.0934986 -0.103814 -0.0937999 -0.0934986 -0.0854183 -0.0937999 -0.0843793 -0.0854183 -0.0769698 -0.0843793 -0.0753541 -0.0769698 -0.0682601 -0.0753541 -0.0665749 -0.0682601 -0.0594333 -0.0665749 -0.0579705 -0.0594333 -0.0506232 -0.0579705 -0.0495077 -0.0506232 -0.0419155 -0.0495077 -0.0411573 -0.0419155 -0.0333415 -0.0411573 -0.0328835 -0.0333415 -0.0248933 -0.0328835 -0.0246515 -0.0248933 -0.0165427 -0.0246515 -0.0164346 -0.0165427 -0.00825589 -0.0164346 -0.00821862 -0.00825589 0 -0.00821862 0 0 0.00825589 0 0.00821862 0.00825589 0.0165427 0.00821862 0.0164346 0.0165427 0.0248933 0.0164346 0.0246515 0.0248933 0.0333415 0.0246515 0.0328835 0.0333415 0.0419155 0.0328835 0.0411573 0.0419155 0.0506232 0.0411573 0.0495077 0.0506232 0.0594333 0.0495077 0.0579705 0.0594333 0.0682601 0.0579705 0.0665749 0.0682601 0.0769698 0.0665749 0.0753541 0.0769698 0.0854183 0.0753541 0.0843793 0.0854183 0.0934986 0.0843793 0.0937999 0.0934986 0.101111 0.0937999 0.103814 0.101111 0.107926 0.103814 0.114399 0.107926 0.112688 0.114399 0.12479 0.112688 0.110578 0.12479 0.131219 0.110578 0.0904996 0.131219 0.118043 0.0904996 0.0563323 0.118043 0.0725001 0.0563323 0.053602 0.0725001 0.0529523 0.053602 0.0486814 0.0529523 0.0305857 0.0486814 0.0119094 0.0305857 -0.0176954 0.0119094 -0.00955876 -0.0176954 -0.0319526 -0.00955876 -0.0120939 -0.0319526 -0.0252527 -0.0120939 -0.00713155 -0.0252527 -0.0132952 -0.00713155 7.29043e-17 -0.0132952 7.22815e-17 7.22815e-17 0.0132952 6.62313e-17 0.0192889 0.0132952 0.0252527 0.0192889 0.0381142 0.0252527 0.0319526 0.0381142 0.0550001 0.0319526 0.0176954 0.0550001 0.0560266 0.0176954 -0.0305857 0.0560266