# vtk DataFile Version 3.0
#This file was generated by the deal.II library on 2017/9/27 at 13:19:14
ASCII
DATASET UNSTRUCTURED_GRID

POINTS 2688 double
-5.63207 0 0
-5.3974 0 0
-5.63207 0.0714286 0
-5.3974 0.0714286 0
-5.3974 0 0
-5.16273 0 0
-5.3974 0.0714286 0
-5.16273 0.0714286 0
-5.16273 0 0
-4.92806 0 0
-5.16273 0.0714286 0
-4.92806 0.0714286 0
-4.92806 0 0
-4.69339 0 0
-4.92806 0.0714286 0
-4.69339 0.0714286 0
-4.69339 0 0
-4.45872 0 0
-4.69339 0.0714286 0
-4.45872 0.0714286 0
-4.45872 0 0
-4.22405 0 0
-4.45872 0.0714286 0
-4.22405 0.0714286 0
-4.22405 0 0
-3.98938 0 0
-4.22405 0.0714286 0
-3.98938 0.0714286 0
-3.98938 0 0
-3.75472 0 0
-3.98938 0.0714286 0
-3.75472 0.0714286 0
-3.75472 0 0
-3.52005 0 0
-3.75472 0.0714286 0
-3.52005 0.0714286 0
-3.52005 0 0
-3.28538 0 0
-3.52005 0.0714286 0
-3.28538 0.0714286 0
-3.28538 0 0
-3.05071 0 0
-3.28538 0.0714286 0
-3.05071 0.0714286 0
-3.05071 0 0
-2.81604 0 0
-3.05071 0.0714286 0
-2.81604 0.0714286 0
-2.81604 0 0
-2.58137 0 0
-2.81604 0.0714286 0
-2.58137 0.0714286 0
-2.58137 0 0
-2.3467 0 0
-2.58137 0.0714286 0
-2.3467 0.0714286 0
-2.3467 0 0
-2.11203 0 0
-2.3467 0.0714286 0
-2.11203 0.0714286 0
-2.11203 0 0
-1.87736 0 0
-2.11203 0.0714286 0
-1.87736 0.0714286 0
-1.87736 0 0
-1.64269 0 0
-1.87736 0.0714286 0
-1.64269 0.0714286 0
-1.64269 0 0
-1.40802 0 0
-1.64269 0.0714286 0
-1.40802 0.0714286 0
-1.40802 0 0
-1.17335 0 0
-1.40802 0.0714286 0
-1.17335 0.0714286 0
-1.17335 0 0
-0.938679 0 0
-1.17335 0.0714286 0
-0.938679 0.0714286 0
-0.938679 0 0
-0.704009 0 0
-0.938679 0.0714286 0
-0.704009 0.0714286 0
-0.704009 0 0
-0.469339 0 0
-0.704009 0.0714286 0
-0.469339 0.0714286 0
-0.469339 0 0
-0.23467 0 0
-0.469339 0.0714286 0
-0.23467 0.0714286 0
-0.23467 0 0
0 0 0
-0.23467 0.0714286 0
0 0.0714286 0
0 0 0
0.23467 0 0
0 0.0714286 0
0.23467 0.0714286 0
0.23467 0 0
0.469339 0 0
0.23467 0.0714286 0
0.469339 0.0714286 0
0.469339 0 0
0.704009 0 0
0.469339 0.0714286 0
0.704009 0.0714286 0
0.704009 0 0
0.938679 0 0
0.704009 0.0714286 0
0.938679 0.0714286 0
0.938679 0 0
1.17335 0 0
0.938679 0.0714286 0
1.17335 0.0714286 0
1.17335 0 0
1.40802 0 0
1.17335 0.0714286 0
1.40802 0.0714286 0
1.40802 0 0
1.64269 0 0
1.40802 0.0714286 0
1.64269 0.0714286 0
1.64269 0 0
1.87736 0 0
1.64269 0.0714286 0
1.87736 0.0714286 0
1.87736 0 0
2.11203 0 0
1.87736 0.0714286 0
2.11203 0.0714286 0
2.11203 0 0
2.3467 0 0
2.11203 0.0714286 0
2.3467 0.0714286 0
2.3467 0 0
2.58137 0 0
2.3467 0.0714286 0
2.58137 0.0714286 0
2.58137 0 0
2.81604 0 0
2.58137 0.0714286 0
2.81604 0.0714286 0
2.81604 0 0
3.05071 0 0
2.81604 0.0714286 0
3.05071 0.0714286 0
3.05071 0 0
3.28538 0 0
3.05071 0.0714286 0
3.28538 0.0714286 0
3.28538 0 0
3.52005 0 0
3.28538 0.0714286 0
3.52005 0.0714286 0
3.52005 0 0
3.75472 0 0
3.52005 0.0714286 0
3.75472 0.0714286 0
3.75472 0 0
3.98938 0 0
3.75472 0.0714286 0
3.98938 0.0714286 0
3.98938 0 0
4.22405 0 0
3.98938 0.0714286 0
4.22405 0.0714286 0
4.22405 0 0
4.45872 0 0
4.22405 0.0714286 0
4.45872 0.0714286 0
4.45872 0 0
4.69339 0 0
4.45872 0.0714286 0
4.69339 0.0714286 0
4.69339 0 0
4.92806 0 0
4.69339 0.0714286 0
4.92806 0.0714286 0
4.92806 0 0
5.16273 0 0
4.92806 0.0714286 0
5.16273 0.0714286 0
5.16273 0 0
5.3974 0 0
5.16273 0.0714286 0
5.3974 0.0714286 0
5.3974 0 0
5.63207 0 0
5.3974 0.0714286 0
5.63207 0.0714286 0
-5.63207 0.0714286 0
-5.3974 0.0714286 0
-5.63207 0.142857 0
-5.3974 0.142857 0
-5.3974 0.0714286 0
-5.16273 0.0714286 0
-5.3974 0.142857 0
-5.16273 0.142857 0
-5.16273 0.0714286 0
-4.92806 0.0714286 0
-5.16273 0.142857 0
-4.92806 0.142857 0
-4.92806 0.0714286 0
-4.69339 0.0714286 0
-4.92806 0.142857 0
-4.69339 0.142857 0
-4.69339 0.0714286 0
-4.45872 0.0714286 0
-4.69339 0.142857 0
-4.45872 0.142857 0
-4.45872 0.0714286 0
-4.22405 0.0714286 0
-4.45872 0.142857 0
-4.22405 0.142857 0
-4.22405 0.0714286 0
-3.98938 0.0714286 0
-4.22405 0.142857 0
-3.98938 0.142857 0
-3.98938 0.0714286 0
-3.75472 0.0714286 0
-3.98938 0.142857 0
-3.75472 0.142857 0
-3.75472 0.0714286 0
-3.52005 0.0714286 0
-3.75472 0.142857 0
-3.52005 0.142857 0
-3.52005 0.0714286 0
-3.28538 0.0714286 0
-3.52005 0.142857 0
-3.28538 0.142857 0
-3.28538 0.0714286 0
-3.05071 0.0714286 0
-3.28538 0.142857 0
-3.05071 0.142857 0
-3.05071 0.0714286 0
-2.81604 0.0714286 0
-3.05071 0.142857 0
-2.81604 0.142857 0
-2.81604 0.0714286 0
-2.58137 0.0714286 0
-2.81604 0.142857 0
-2.58137 0.142857 0
-2.58137 0.0714286 0
-2.3467 0.0714286 0
-2.58137 0.142857 0
-2.3467 0.142857 0
-2.3467 0.0714286 0
-2.11203 0.0714286 0
-2.3467 0.142857 0
-2.11203 0.142857 0
-2.11203 0.0714286 0
-1.87736 0.0714286 0
-2.11203 0.142857 0
-1.87736 0.142857 0
-1.87736 0.0714286 0
-1.64269 0.0714286 0
-1.87736 0.142857 0
-1.64269 0.142857 0
-1.64269 0.0714286 0
-1.40802 0.0714286 0
-1.64269 0.142857 0
-1.40802 0.142857 0
-1.40802 0.0714286 0
-1.17335 0.0714286 0
-1.40802 0.142857 0
-1.17335 0.142857 0
-1.17335 0.0714286 0
-0.938679 0.0714286 0
-1.17335 0.142857 0
-0.938679 0.142857 0
-0.938679 0.0714286 0
-0.704009 0.0714286 0
-0.938679 0.142857 0
-0.704009 0.142857 0
-0.704009 0.0714286 0
-0.469339 0.0714286 0
-0.704009 0.142857 0
-0.469339 0.142857 0
-0.469339 0.0714286 0
-0.23467 0.0714286 0
-0.469339 0.142857 0
-0.23467 0.142857 0
-0.23467 0.0714286 0
0 0.0714286 0
-0.23467 0.142857 0
0 0.142857 0
0 0.0714286 0
0.23467 0.0714286 0
0 0.142857 0
0.23467 0.142857 0
0.23467 0.0714286 0
0.469339 0.0714286 0
0.23467 0.142857 0
0.469339 0.142857 0
0.469339 0.0714286 0
0.704009 0.0714286 0
0.469339 0.142857 0
0.704009 0.142857 0
0.704009 0.0714286 0
0.938679 0.0714286 0
0.704009 0.142857 0
0.938679 0.142857 0
0.938679 0.0714286 0
1.17335 0.0714286 0
0.938679 0.142857 0
1.17335 0.142857 0
1.17335 0.0714286 0
1.40802 0.0714286 0
1.17335 0.142857 0
1.40802 0.142857 0
1.40802 0.0714286 0
1.64269 0.0714286 0
1.40802 0.142857 0
1.64269 0.142857 0
1.64269 0.0714286 0
1.87736 0.0714286 0
1.64269 0.142857 0
1.87736 0.142857 0
1.87736 0.0714286 0
2.11203 0.0714286 0
1.87736 0.142857 0
2.11203 0.142857 0
2.11203 0.0714286 0
2.3467 0.0714286 0
2.11203 0.142857 0
2.3467 0.142857 0
2.3467 0.0714286 0
2.58137 0.0714286 0
2.3467 0.142857 0
2.58137 0.142857 0
2.58137 0.0714286 0
2.81604 0.0714286 0
2.58137 0.142857 0
2.81604 0.142857 0
2.81604 0.0714286 0
3.05071 0.0714286 0
2.81604 0.142857 0
3.05071 0.142857 0
3.05071 0.0714286 0
3.28538 0.0714286 0
3.05071 0.142857 0
3.28538 0.142857 0
3.28538 0.0714286 0
3.52005 0.0714286 0
3.28538 0.142857 0
3.52005 0.142857 0
3.52005 0.0714286 0
3.75472 0.0714286 0
3.52005 0.142857 0
3.75472 0.142857 0
3.75472 0.0714286 0
3.98938 0.0714286 0
3.75472 0.142857 0
3.98938 0.142857 0
3.98938 0.0714286 0
4.22405 0.0714286 0
3.98938 0.142857 0
4.22405 0.142857 0
4.22405 0.0714286 0
4.45872 0.0714286 0
4.22405 0.142857 0
4.45872 0.142857 0
4.45872 0.0714286 0
4.69339 0.0714286 0
4.45872 0.142857 0
4.69339 0.142857 0
4.69339 0.0714286 0
4.92806 0.0714286 0
4.69339 0.142857 0
4.92806 0.142857 0
4.92806 0.0714286 0
5.16273 0.0714286 0
4.92806 0.142857 0
5.16273 0.142857 0
5.16273 0.0714286 0
5.3974 0.0714286 0
5.16273 0.142857 0
5.3974 0.142857 0
5.3974 0.0714286 0
5.63207 0.0714286 0
5.3974 0.142857 0
5.63207 0.142857 0
-5.63207 0.142857 0
-5.3974 0.142857 0
-5.63207 0.214286 0
-5.3974 0.214286 0
-5.3974 0.142857 0
-5.16273 0.142857 0
-5.3974 0.214286 0
-5.16273 0.214286 0
-5.16273 0.142857 0
-4.92806 0.142857 0
-5.16273 0.214286 0
-4.92806 0.214286 0
-4.92806 0.142857 0
-4.69339 0.142857 0
-4.92806 0.214286 0
-4.69339 0.214286 0
-4.69339 0.142857 0
-4.45872 0.142857 0
-4.69339 0.214286 0
-4.45872 0.214286 0
-4.45872 0.142857 0
-4.22405 0.142857 0
-4.45872 0.214286 0
-4.22405 0.214286 0
-4.22405 0.142857 0
-3.98938 0.142857 0
-4.22405 0.214286 0
-3.98938 0.214286 0
-3.98938 0.142857 0
-3.75472 0.142857 0
-3.98938 0.214286 0
-3.75472 0.214286 0
-3.75472 0.142857 0
-3.52005 0.142857 0
-3.75472 0.214286 0
-3.52005 0.214286 0
-3.52005 0.142857 0
-3.28538 0.142857 0
-3.52005 0.214286 0
-3.28538 0.214286 0
-3.28538 0.142857 0
-3.05071 0.142857 0
-3.28538 0.214286 0
-3.05071 0.214286 0
-3.05071 0.142857 0
-2.81604 0.142857 0
-3.05071 0.214286 0
-2.81604 0.214286 0
-2.81604 0.142857 0
-2.58137 0.142857 0
-2.81604 0.214286 0
-2.58137 0.214286 0
-2.58137 0.142857 0
-2.3467 0.142857 0
-2.58137 0.214286 0
-2.3467 0.214286 0
-2.3467 0.142857 0
-2.11203 0.142857 0
-2.3467 0.214286 0
-2.11203 0.214286 0
-2.11203 0.142857 0
-1.87736 0.142857 0
-2.11203 0.214286 0
-1.87736 0.214286 0
-1.87736 0.142857 0
-1.64269 0.142857 0
-1.87736 0.214286 0
-1.64269 0.214286 0
-1.64269 0.142857 0
-1.40802 0.142857 0
-1.64269 0.214286 0
-1.40802 0.214286 0
-1.40802 0.142857 0
-1.17335 0.142857 0
-1.40802 0.214286 0
-1.17335 0.214286 0
-1.17335 0.142857 0
-0.938679 0.142857 0
-1.17335 0.214286 0
-0.938679 0.214286 0
-0.938679 0.142857 0
-0.704009 0.142857 0
-0.938679 0.214286 0
-0.704009 0.214286 0
-0.704009 0.142857 0
-0.469339 0.142857 0
-0.704009 0.214286 0
-0.469339 0.214286 0
-0.469339 0.142857 0
-0.23467 0.142857 0
-0.469339 0.214286 0
-0.23467 0.214286 0
-0.23467 0.142857 0
0 0.142857 0
-0.23467 0.214286 0
0 0.214286 0
0 0.142857 0
0.23467 0.142857 0
0 0.214286 0
0.23467 0.214286 0
0.23467 0.142857 0
0.469339 0.142857 0
0.23467 0.214286 0
0.469339 0.214286 0
0.469339 0.142857 0
0.704009 0.142857 0
0.469339 0.214286 0
0.704009 0.214286 0
0.704009 0.142857 0
0.938679 0.142857 0
0.704009 0.214286 0
0.938679 0.214286 0
0.938679 0.142857 0
1.17335 0.142857 0
0.938679 0.214286 0
1.17335 0.214286 0
1.17335 0.142857 0
1.40802 0.142857 0
1.17335 0.214286 0
1.40802 0.214286 0
1.40802 0.142857 0
1.64269 0.142857 0
1.40802 0.214286 0
1.64269 0.214286 0
1.64269 0.142857 0
1.87736 0.142857 0
1.64269 0.214286 0
1.87736 0.214286 0
1.87736 0.142857 0
2.11203 0.142857 0
1.87736 0.214286 0
2.11203 0.214286 0
2.11203 0.142857 0
2.3467 0.142857 0
2.11203 0.214286 0
2.3467 0.214286 0
2.3467 0.142857 0
2.58137 0.142857 0
2.3467 0.214286 0
2.58137 0.214286 0
2.58137 0.142857 0
2.81604 0.142857 0
2.58137 0.214286 0
2.81604 0.214286 0
2.81604 0.142857 0
3.05071 0.142857 0
2.81604 0.214286 0
[...]
POINT_DATA 2688
SCALARS x1_displacement double 1
LOOKUP_TABLE default
1.69767e-16 -0.0327127 1.38995e-16 -0.0320158 -0.0327127 -0.0645208 -0.0320158 -0.0633359 -0.0645208 -0.0923816 -0.0633359 -0.091113 -0.0923816 -0.10945 -0.091113 -0.10854 -0.10945 -0.106011 -0.10854 -0.105622 -0.106011 -0.0796908 -0.105622 -0.0796299 -0.0796908 -0.0518249 -0.0796299 -0.0521028 -0.0518249 -0.0444745 -0.0521028 -0.0453263 -0.0444745 -0.0556458 -0.0453263 -0.0569694 -0.0556458 -0.074815 -0.0569694 -0.0762365 -0.074815 -0.0937042 -0.0762365 -0.0948969 -0.0937042 -0.107803 -0.0948969 -0.108632 -0.107803 -0.115427 -0.108632 -0.115909 -0.115427 -0.116611 -0.115909 -0.116827 -0.116611 -0.112289 -0.116827 -0.11233 -0.112289 -0.103778 -0.11233 -0.103718 -0.103778 -0.0924422 -0.103718 -0.0923376 -0.0924422 -0.0794855 -0.0923376 -0.0793724 -0.0794855 -0.0658321 -0.0793724 -0.0657312 -0.0658321 -0.0520948 -0.0657312 -0.0520152 -0.0520948 -0.0386039 -0.0520152 -0.0385475 -0.0386039 -0.0254687 -0.0385475 -0.0254336 -0.0254687 -0.0126458 -0.0254336 -0.0126292 -0.0126458 0 -0.0126292 0 0 0.0126458 0 0.0126292 0.0126458 0.0254687 0.0126292 0.0254336 0.0254687 0.0386039 0.0254336 0.0385475 0.0386039 0.0520948 0.0385475 0.0520152 0.0520948 0.0658321 0.0520152 0.0657312 0.0658321 0.0794855 0.0657312 0.0793724 0.0794855 0.0924422 0.0793724 0.0923376 0.0924422 0.103778 0.0923376 0.103718 0.103778 0.112289 0.103718 0.11233 0.112289 0.116611 0.11233 0.116827 0.116611 0.115427 0.116827 0.115909 0.115427 0.107803 0.115909 0.108632 0.107803 0.0937042 0.108632 0.0948969 0.0937042 0.074815 0.0948969 0.0762365 0.074815 0.0556458 0.0762365 0.0569694 0.0556458 0.0444745 0.0569694 0.0453263 0.0444745 0.0518249 0.0453263 0.0521028 0.0518249 0.0796908 0.0521028 0.0796299 0.0796908 0.106011 0.0796299 0.105622 0.106011 0.10945 0.105622 0.10854 0.10945 0.0923816 0.10854 0.091113 0.0923816 0.0645208 0.091113 0.0633359 0.0645208 0.0327127 0.0633359 0.0320158 0.0327127 1.69767e-16 0.0320158 1.38995e-16 1.38995e-16 -0.0320158 1.0464e-16 -0.0300049 -0.0320158 -0.0633359 -0.0300049 -0.0598801 -0.0633359 -0.091113 -0.0598801 -0.087367 -0.091113 -0.10854 -0.087367 -0.105863 -0.10854 -0.105622 -0.105863 -0.10456 -0.105622 -0.0796299 -0.10456 -0.0794656 -0.0796299 -0.0521028 -0.0794656 -0.0528461 -0.0521028 -0.0453263 -0.0528461 -0.0478039 -0.0453263 -0.0569694 -0.0478039 -0.0608105 -0.0569694 -0.0762365 -0.0608105 -0.0802858 -0.0762365 -0.0948969 -0.0802858 -0.0982326 -0.0948969 -0.108632 -0.0982326 -0.110916 -0.108632 -0.115909 -0.110916 -0.117217 -0.115909 -0.116827 -0.117217 -0.1174 -0.116827 -0.11233 -0.1174 -0.112421 -0.11233 -0.103718 -0.112421 -0.103537 -0.103718 -0.0923376 -0.103537 -0.0920376 -0.0923376 -0.0793724 -0.0920376 -0.0790529 -0.0793724 -0.0657312 -0.0790529 -0.0654482 -0.0657312 -0.0520152 -0.0654482 -0.0517932 -0.0520152 -0.0385475 -0.0517932 -0.0383908 -0.0385475 -0.0254336 -0.0383908 -0.0253363 -0.0254336 -0.0126292 -0.0253363 -0.0125832 -0.0126292 0 -0.0125832 0 0 0.0126292 0 0.0125832 0.0126292 0.0254336 0.0125832 0.0253363 0.0254336 0.0385475 0.0253363 0.0383908 0.0385475 0.0520152 0.0383908 0.0517932 0.0520152 0.0657312 0.0517932 0.0654482 0.0657312 0.0793724 0.0654482 0.0790529 0.0793724 0.0923376 0.0790529 0.0920376 0.0923376 0.103718 0.0920376 0.103537 0.103718 0.11233 0.103537 0.112421 0.11233 0.116827 0.112421 0.1174 0.116827 0.115909 0.1174 0.117217 0.115909 0.108632 0.117217 0.110916 0.108632 0.0948969 0.110916 0.0982326 0.0948969 0.0762365 0.0982326 0.0802858 0.0762365 0.0569694 0.0802858 0.0608105 0.0569694 0.0453263 0.0608105 0.0478039 0.0453263 0.0521028 0.0478039 0.0528461 0.0521028 0.0796299 0.0528461 0.0794656 0.0796299 0.105622 0.0794656 0.10456 0.105622 0.10854 0.10456 0.105863 0.10854 0.091113 0.105863 0.087367 0.091113 0.0633359 0.087367 0.0598801 0.0633359 0.0320158 0.0598801 0.0300049 0.0320158 1.38995e-16 0.0300049 1.0464e-16 1.0464e-16 -0.0300049 9.11511e-17 -0.0267919 -0.0300049 -0.0598801 -0.0267919 -0.0542884 -0.0598801 -0.087367 -0.0542884 -0.0812096 -0.087367 -0.105863 -0.0812096 -0.101433 -0.105863 -0.10456 -0.101433 -0.102876 -0.10456 -0.0794656 -0.102876 -0.0792136 -0.0794656 -0.0528461 -0.0792136 -0.0540223 -0.0528461 -0.0478039 -0.0540223 -0.0518775 -0.0478039 -0.0608105 -0.0518775 -0.067041 -0.0608105 -0.0802858 -0.067041 -0.0867068 -0.0802858 -0.0982326 -0.0867068 -0.103413 -0.0982326 -0.110916 -0.103413 -0.114407 -0.110916 -0.117217 -0.114407 -0.119191 -0.117217 -0.1174 -0.119191 -0.118246 -0.1174 -0.112421 -0.118246 -0.112534 -0.112421 -0.103537 -0.112534 -0.103241 -0.103537 -0.0920376 -0.103241 -0.0915645 -0.0920376 -0.0790529 -0.0915645 -0.0785546 -0.0790529 -0.0654482 -0.0785546 -0.0650097 -0.0654482 -0.0517932 -0.0650097 -0.0514508 -0.0517932 -0.0383908 -0.0514508 -0.03815 -0.0383908 -0.0253363 -0.03815 -0.0251875 -0.0253363 -0.0125832 -0.0251875 -0.012513 -0.0125832 0 -0.012513 0 0 0.0125832 0 0.012513 0.0125832 0.0253363 0.012513 0.0251875 0.0253363 0.0383908 0.0251875 0.03815 0.0383908 0.0517932 0.03815 0.0514508 0.0517932 0.0654482 0.0514508 0.0650097 0.0654482 0.0790529 0.0650097 0.0785546 0.0790529 0.0920376 0.0785546 0.0915645 0.0920376 0.103537 0.0915645 0.103241 0.103537 0.112421 0.103241 0.112534 0.112421 0.1174 0.112534 0.118246 0.1174 0.117217 0.118246 0.119191 0.117217 0.110916 0.119191 0.114407 0.110916 0.0982326 0.114407 0.103413 0.0982326 0.0802858 0.103413 0.0867068 0.0802858 0.0608105 0.0867068 0.067041 0.0608105 0.0478039 0.067041 0.0518775 0.0478039 0.0528461 0.0518775 0.0540223 0.0528461 0.0794656 0.0540223 0.0792136 0.0794656 0.10456 0.0792136 0.102876 0.10456 0.105863 0.102876 0.101433 0.105863 0.087367 0.101433 0.0812096 0.087367 0.0598801 0.0812096 0.0542884 0.0598801 0.0300049 0.0542884 0.0267919 0.0300049 1.0464e-16 0.0267919 9.11511e-17 9.11511e-17 -0.0267919 8.58564e-17 -0.0224608 -0.0267919 -0.0542884 -0.0224608 -0.0466011 -0.0542884 -0.0812096 -0.0466011 -0.0725042 -0.0812096 -0.101433 -0.0725042 -0.0950104 -0.101433 -0.102876 -0.0950104 -0.100462 -0.102876 -0.0792136 -0.100462 -0.0788831 -0.0792136 -0.0540223 -0.0788831 -0.0557385 -0.0540223 -0.0518775 -0.0557385 -0.0577537 -0.0518775 -0.067041 -0.0577537 -0.0757163 -0.067041 -0.0867068 -0.0757163 -0.0953198 -0.0867068 -0.103413 -0.0953198 -0.11015 -0.103413 -0.114407 -0.11015 -0.11884 -0.114407 -0.119191 -0.11884 -0.121641 -0.119191 -0.118246 -0.121641 -0.119254 -0.118246 -0.112534 -0.119254 -0.112618 -0.112534 -0.103241 -0.112618 -0.102815 -0.103241 -0.0915645 -0.102815 -0.0909276 -0.0915645 -0.0785546 -0.0909276 -0.0778978 -0.0785546 -0.0650097 -0.0778978 -0.0644387 -0.0650097 -0.0514508 -0.0644387 -0.0510091 -0.0514508 -0.03815 -0.0510091 -0.037842 -0.03815 -0.0251875 -0.037842 -0.0249982 -0.0251875 -0.012513 -0.0249982 -0.0124243 -0.012513 0 -0.0124243 0 0 0.012513 0 0.0124243 0.012513 0.0251875 0.0124243 0.0249982 0.0251875 0.03815 0.0249982 0.037842 0.03815 0.0514508 0.037842 0.0510091 0.0514508 0.0650097 0.0510091 0.0644387 0.0650097 0.0785546 0.0644387 0.0778978 0.0785546 0.0915645 0.0778978 0.0909276 0.0915645 0.103241 0.0909276 0.102815 0.103241 0.112534 0.102815 0.112618 0.112534 0.118246 0.112618 0.119254 0.118246 0.119191 0.119254 0.121641 0.119191 0.114407 0.121641 0.11884 0.114407 0.103413 0.11884 0.11015 0.103413 0.0867068 0.11015 0.0953198 0.0867068 0.067041 0.0953198 0.0757163 0.067041 0.0518775 0.0757163 0.0577537 0.0518775 0.0540223 0.0577537 0.0557385 0.0540223 0.0792136 0.0557385 0.0788831 0.0792136 0.102876 0.0788831 0.100462 0.102876 0.101433 0.100462 0.0950104 0.101433 0.0812096 0.0950104 0.0725042 0.0812096 0.0542884 0.0725042 0.0466011 0.0542884 0.0267919 0.0466011 0.0224608 0.0267919 9.11511e-17 0.0224608 8.58564e-17 8.58564e-17 -0.0224608 7.91022e-17 -0.0171 -0.0224608 -0.0466011 -0.0171 -0.0368228 -0.0466011 -0.0725042 -0.0368228 -0.0609596 -0.0725042 -0.0950104 -0.0609596 -0.0861002 -0.0950104 -0.100462 -0.0861002 -0.097047 -0.100462 -0.0788831 -0.097047 -0.0784791 -0.0788831 -0.0557385 -0.0784791 -0.0582522 -0.0557385 -0.0577537 -0.0582522 -0.0658811 -0.0577537 -0.0757163 -0.0658811 -0.0870408 -0.0757163 -0.0953198 -0.0870408 -0.105979 -0.0953198 -0.11015 -0.105979 -0.118143 -0.11015 -0.11884 -0.118143 -0.123933 -0.11884 -0.121641 -0.123933 -0.124363 -0.121641 -0.119254 -0.124363 -0.120296 -0.119254 -0.112618 -0.120296 -0.112604 -0.112618 -0.102815 -0.112604 -0.102235 -0.102815 -0.0909276 -0.102235 -0.0901278 -0.0909276 -0.0778978 -0.0901278 -0.0770975 -0.0778978 -0.0644387 -0.0770975 -0.0637559 -0.0644387 -0.0510091 -0.0637559 -0.0504886 -0.0510091 -0.037842 -0.0504886 -0.0374836 -0.037842 -0.0249982 -0.0374836 -0.0247805 -0.0249982 -0.0124243 -0.0247805 -0.0123229 -0.0124243 0 -0.0123229 0 0 0.0124243 0 0.0123229 0.0124243 0.0249982 0.0123229 0.0247805 0.0249982 0.037842 0.0247805 0.0374836 0.037842 0.0510091 0.0374836 0.0504886 0.0510091 0.0644387 0.0504886 0.0637559 0.0644387 0.0778978 0.0637559 0.0770975 0.0778978 0.0909276 0.0770975 0.0901278 0.0909276 0.102815 0.0901278 0.102235 0.102815 0.112618 0.102235 0.112604 0.112618 0.119254 0.112604 0.120296 0.119254 0.121641 0.120296 0.124363 0.121641 0.11884 0.124363 0.123933 0.11884 0.11015 0.123933 0.118143 0.11015 0.0953198 0.118143 0.105979 0.0953198 0.0757163 0.105979 0.0870408 0.0757163 0.0577537 0.0870408 0.0658811 0.0577537 0.0557385 0.0658811 0.0582522 0.0557385 0.0788831 0.0582522 0.0784791 0.0788831 0.100462 0.0784791 0.097047 0.100462 0.0950104 0.097047 0.0861002 0.0950104 0.0725042 0.0861002 0.0609596 0.0725042 0.0466011 0.0609596 0.0368228 0.0466011 0.0224608 0.0368228 0.0171 0.0224608 8.58564e-17 0.0171 7.91022e-17 7.91022e-17 -0.0171 7.59988e-17 -0.010835 -0.0171 -0.0368228 -0.010835 -0.024997 -0.0368228 -0.0609596 -0.024997 -0.0461938 -0.0609596 -0.0861002 -0.0461938 -0.0739297 -0.0861002 -0.097047 -0.0739297 -0.09215 -0.097047 -0.0784791 -0.09215 -0.0780042 -0.0784791 -0.0582522 -0.0780042 -0.0620213 -0.0582522 -0.0658811 -0.0620213 -0.0769832 -0.0658811 -0.0870408 -0.0769832 -0.101319 -0.0870408 -0.105979 -0.101319 -0.118511 -0.105979 -0.118143 -0.118511 -0.127061 -0.118143 -0.123933 -0.127061 -0.12939 -0.123933 -0.124363 -0.12939 -0.127141 -0.124363 -0.120296 -0.127141 -0.121232 -0.120296 -0.112604 -0.121232 -0.112415 -0.112604 -0.102235 -0.112415 -0.101466 -0.102235 -0.0901278 -0.101466 -0.0891599 -0.0901278 -0.0770975 -0.0891599 -0.0761656 -0.0770975 -0.0637559 -0.0761656 -0.0629805 -0.0637559 -0.0504886 -0.0629805 -0.0499097 -0.0504886 -0.0374836 -0.0499097 -0.0370922 -0.0374836 -0.0247805 -0.0370922 -0.0245466 -0.0247805 -0.0123229 -0.0245466 -0.0122153 -0.0123229 0 -0.0122153 0 0 0.0123229 0 0.0122153 0.0123229 0.0247805 0.0122153 0.0245466 0.0247805 0.0374836 0.0245466 0.0370922 0.0374836 0.0504886 0.0370922 0.0499097 0.0504886 0.0637559 0.0499097 0.0629805 0.0637559 0.0770975 0.0629805 0.0761656 0.0770975 0.0901278 0.0761656 0.0891599 0.0901278 0.102235 0.0891599 0.101466 0.102235 0.112604 0.101466 0.112415 0.112604 0.120296 0.112415 0.121232 0.120296 0.124363 0.121232 0.127141 0.124363 0.123933 0.127141 0.12939 0.123933 0.118143 0.12939 0.127061 0.118143 0.105979 0.127061 0.118511 0.105979 0.0870408 0.118511 0.101319 0.0870408 0.0658811 0.101319 0.0769832 0.0658811 0.0582522 0.0769832 0.0620213 0.0582522 0.0784791 0.0620213 0.0780042 0.0784791 0.097047 0.0780042 0.09215 0.097047 0.0861002 0.09215 0.0739297 0.0861002 0.0609596 0.0739297 0.0461938 0.0609596 0.0368228 0.0461938 0.024997 0.0368228 0.0171 0.024997 0.010835 0.0171 7.91022e-17 0.010835 7.59988e-17 7.59988e-17 -0.010835 7.00068e-17 -0.00384694 -0.010835 -0.024997 -0.00384694 -0.0112878 -0.024997 -0.0461938 -0.0112878 -0.0278313 -0.0461938 -0.0739297 -0.0278313 -0.0574018 -0.0739297 -0.09215 -0.0574018 -0.0849717 -0.09215 -0.0780042 -0.0849717 -0.0774581 -0.0780042 -0.0620213 -0.0774581 -0.0678131 -0.0620213 -0.0769832 -0.0678131 -0.0921173 -0.0769832 -0.101319 -0.0921173 -0.118874 -0.101319 -0.118511 -0.118874 -0.132648 -0.118511 -0.127061 -0.132648 -0.136528 -0.127061 -0.12939 -0.136528 -0.134904 -0.12939 -0.127141 -0.134904 -0.129755 -0.127141 -0.121232 -0.129755 -0.121918 -0.121232 -0.112415 -0.121918 -0.111965 -0.112415 -0.101466 -0.111965 -0.10047 -0.101466 -0.0891599 -0.10047 -0.0880162 -0.0891599 -0.0761656 -0.0880162 -0.0751123 -0.0761656 -0.0629805 -0.0751123 -0.0621314 -0.0629805 -0.0499097 -0.0621314 -0.0492927 -0.0499097 -0.0370922 -0.0492927 -0.0366857 -0.0370922 -0.0245466 -0.0366857 -0.0243092 -0.0245466 -0.0122153 -0.0243092 -0.0121081 -0.0122153 0 -0.0121081 0 0 0.0122153 0 0.0121081 0.0122153 0.0245466 0.0121081 0.0243092 0.0245466 0.0370922 0.0243092 0.0366857 0.0370922 0.0499097 0.0366857 0.0492927 0.0499097 0.0629805 0.0492927 0.0621314 0.0629805 0.0761656 0.0621314 0.0751123 0.0761656 0.0891599 0.0751123 0.0880162 0.0891599 0.101466 0.0880162 0.10047 0.101466 0.112415 0.10047 0.111965 0.112415 0.121232 0.111965 0.121918 0.121232 0.127141 0.121918 0.129755 0.127141 0.12939 0.129755 0.134904 0.12939 0.127061 0.134904 0.136528 0.127061 0.118511 0.136528 0.132648 0.118511 0.101319 0.132648 0.118874 0.101319 0.0769832 0.118874 0.0921173 0.0769832 0.0620213 0.0921173 0.0678131 0.0620213 0.0780042 0.0678131 0.0774581 0.0780042 0.09215 0.0774581 0.0849717 0.09215 0.0739297 0.0849717 0.0574018 0.0739297 0.0461938 0.0574018 0.0278313 0.0461938 0.024997 0.0278313 0.0112878 0.024997 0.010835 0.0112878 0.00384694 0.010835 7.59988e-17 0.00384694 7.00068e-17 7.00068e-17 -0.00384694 6.68828e-17 0.00363012 -0.00384694 -0.0112878 0.00363012 0.00393948 -0.0112878 -0.0278313 0.00393948 -0.00567938 -0.0278313 -0.0574018 -0.00567938 -0.0350465 -0.0574018 -0.0849717 -0.0350465 -0.0741966 -0.0849717 -0.0774581 -0.0741966 -0.0768377 -0.0774581 -0.0678131 -0.0768377 -0.07691 -0.0678131 -0.0921173 -0.07691 -0.112744 -0.0921173 -0.118874 -0.112744 -0.139883 -0.118874 -0.132648 -0.139883 -0.14794 -0.132648 -0.136528 -0.14794 -0.146123 -0.136528 -0.134904 -0.146123 -0.140165 -0.134904 -0.129755 -0.140165 -0.131982 -0.129755 -0.121918 -0.131982 -0.122207 -0.121918 -0.111965 -0.122207 -0.11117 -0.111965 -0.10047 -0.11117 -0.0992079 -0.10047 -0.0880162 -0.0992079 -0.086689 -0.0880162 -0.0751123 -0.086689 -0.0739488 -0.0751123 -0.0621314 -0.0739488 -0.0612283 -0.0621314 -0.0492927 -0.0612283 -0.048659 -0.0492927 -0.0366857 -0.048659 -0.0362824 -0.0366857 -0.0243092 -0.0362824 -0.0240814 -0.0243092 -0.0121081 -0.0240814 -0.0120078 -0.0121081 0 -0.0120078 0 0 0.0121081 0 0.0120078 0.0121081 0.0243092 0.0120078 0.0240814 0.0243092 0.0366857 0.0240814 0.0362824 0.0366857 0.0492927 0.0362824 0.048659 0.0492927 0.0621314 0.048659 0.0612283 0.0621314 0.0751123 0.0612283 0.0739488 0.0751123 0.0880162 0.0739488 0.086689 0.0880162 0.10047 0.086689 0.0992079 0.10047 0.111965 0.0992079 0.11117 0.111965 0.121918 0.11117 0.122207 0.121918 0.129755 0.122207 0.131982 0.129755 0.134904 0.131982 0.140165 0.134904 0.136528 0.140165 0.146123 0.136528 0.132648 0.146123 0.14794 0.132648 0.118874 0.14794 0.139883 0.118874 0.0921173 0.139883 0.112744 0.0921173 0.0678131 0.112744 0.07691 0.0678131 0.0774581 0.07691 0.0768377 0.0774581 0.0849717 0.0768377 0.0741966 0.0849717 0.0574018 0.0741966 0.0350465 0.0574018 0.0278313 0.0350465 0.00567938 0.0278313 0.0112878 0.00567938 -0.00393948 0.0112878 0.00384694 -0.00393948 -0.00363012 0.00384694 7.00068e-17 -0.00363012 6.68828e-17 6.68828e-17 0.00363012 6.57177e-17 0.0113418 0.00363012 0.00393948 0.0113418 0.0200874 0.00393948 -0.00567938 0.0200874 0.0199604 -0.00567938 -0.0350465 0.0199604 -0.00503169 -0.0350465 -0.0741966 -0.00503169 -0.057598 -0.0741966 -0.0768377 -0.057598 -0.0761349 -0.0768377 -0.07691 -0.0761349 -0.0915175 -0.07691 -0.112744 -0.0915175 -0.140749 -0.112744 -0.139883 -0.140749 -0.164065 -0.139883 -0.14794 -0.164065 -0.163721 -0.14794 -0.146123 -0.163721 -0.155407 -0.146123 -0.140165 -0.155407 -0.144865 -0.140165 -0.131982 -0.144865 -0.133605 -0.131982 -0.122207 -0.133605 -0.121957 -0.122207 -0.11117 -0.121957 -0.109949 -0.11117 -0.0992079 -0.109949 -0.0976425 -0.0992079 -0.086689 -0.0976425 -0.0851729 -0.086689 -0.0739488 -0.0851729 -0.0726883 -0.0739488 -0.0612283 -0.0726883 -0.0602928 -0.0612283 -0.048659 -0.0602928 -0.0480311 -0.048659 -0.0362824 -0.0480311 -0.0359014 -0.0362824 -0.0240814 -0.0359014 -0.0238767 -0.0240814 -0.0120078 -0.0238767 -0.0119214 -0.0120078 0 -0.0119214 0 0 0.0120078 0 0.0119214 0.0120078 0.0240814 0.0119214 0.0238767 0.0240814 0.0362824 0.0238767 0.0359014 0.0362824 0.048659 0.0359014 0.0480311 0.048659 0.0612283 0.0480311 0.0602928 0.0612283 0.0739488 0.0602928 0.0726883 0.0739488 0.086689 0.0726883 0.0851729 0.086689 0.0992079 0.0851729 0.0976425 0.0992079 0.11117 0.0976425 0.109949 0.11117 0.122207 0.109949 0.121957 0.122207 0.131982 0.121957 0.133605 0.131982 0.140165 0.133605 0.144865 0.140165 0.146123 0.144865 0.155407 0.146123 0.14794 0.155407 0.163721 0.14794 0.139883 0.163721 0.164065 0.139883 0.112744 0.164065 0.140749 0.112744 0.07691 0.140749 0.0915175 0.07691 0.0768377 0.0915175 0.0761349 0.0768377 0.0741966 0.0761349 0.057598 0.0741966 0.0350465 0.057598 0.00503169 0.0350465 0.00567938 0.00503169 -0.0199604 0.00567938 -0.00393948 -0.0199604 -0.0200874 -0.00393948 -0.00363012 -0.0200874 -0.0113418 -0.00363012 6.68828e-17 -0.0113418 6.57177e-17 6.57177e-17 0.0113418 6.14869e-17 0.0190447 0.0113418 0.0200874 0.0190447 0.0364437 0.0200874 0.0199604 0.0364437 0.0478257 0.0199604 -0.00503169 0.0478257 0.034471 -0.00503169 -0.057598 0.034471 -0.0311291 -0.057598 -0.0761349 -0.0311291 -0.0753463 -0.0761349 -0.0915175 -0.0753463 -0.115714 -0.0915175 -0.140749 -0.115714 -0.178112 -0.140749 -0.164065 -0.178112 -0.190196 -0.164065 -0.163721 -0.190196 -0.179206 -0.163721 -0.155407 -0.179206 -0.163958 -0.155407 -0.144865 -0.163958 -0.148695 -0.144865 -0.133605 -0.148695 -0.134414 -0.133605 -0.121957 -0.134414 -0.121032 -0.121957 -0.109949 -0.121032 -0.108224 -0.109949 -0.0976425 -0.108224 -0.0957419 -0.0976425 -0.0851729 -0.0957419 -0.0834669 -0.0851729 -0.0726883 -0.0834669 -0.0713474 -0.0726883 -0.0602928 -0.0713474 -0.0593487 -0.0602928 -0.0480311 -0.0593487 -0.047433 -0.0480311 -0.0359014 -0.047433 -0.0355627 -0.0359014 -0.0238767 -0.0355627 -0.0237088 -0.0238767 -0.0119214 -0.0237088 -0.0118559 -0.0119214 0 -0.0118559 0 0 0.0119214 0 0.0118559 0.0119214 0.0238767 0.0118559 0.0237088 0.0238767 0.0359014 0.0237088 0.0355627 0.0359014 0.0480311 0.0355627 0.047433 0.0480311 0.0602928 0.047433 0.0593487 0.0602928 0.0726883 0.0593487 0.0713474 0.0726883 0.0851729 0.0713474 0.0834669 0.0851729 0.0976425 0.0834669 0.0957419 0.0976425 0.109949 0.0957419 0.108224 0.109949 0.121957 0.108224 0.121032 0.121957 0.133605 0.121032 0.134414 0.133605 0.144865 0.134414 0.148695 0.144865 0.155407 0.148695 0.163958 0.155407 0.163721 0.163958 0.179206 0.163721 0.164065 0.179206 0.190196 0.164065 0.140749 0.190196 0.178112 0.140749 0.0915175 0.178112 0.115714 0.0915175 0.0761349 0.115714 0.0753463 0.0761349 0.057598 0.0753463 0.0311291 0.057598 0.00503169 0.0311291 -0.034471 0.00503169 -0.0199604 -0.034471 -0.0478257 -0.0199604 -0.0200874 -0.0478257 -0.0364437 -0.0200874 -0.0113418 -0.0364437 -0.0190447 -0.0113418 6.57177e-17 -0.0190447 6.14869e-17 6.14869e-17 0.0190447 5.89844e-17 0.0264692 0.0190447 0.0364437 0.0264692 0.0524784 0.0364437 0.0478257 0.0524784 0.075552 0.0478257 0.034471 0.075552 0.083206 0.034471 -0.0311291 0.083206 0.0136788 -0.0311291 -0.0753463 0.0136788 -0.0745134 -0.0753463 -0.115714 -0.0745134 -0.158202 -0.115714 -0.178112 -0.158202 -0.224801 -0.178112 -0.190196 -0.224801 -0.215916 -0.190196 -0.179206 -0.215916 -0.193786 -0.179206 -0.163958 -0.193786 -0.17134 -0.163958 -0.148695 -0.17134 -0.151368 -0.148695 -0.134414 -0.151368 -0.134208 -0.134414 -0.121032 -0.134208 -0.119304 -0.121032 -0.108224 -0.119304 -0.105924 -0.108224 -0.0957419 -0.105924 -0.0934814 -0.0957419 -0.0834669 -0.0934814 -0.0815765 -0.0834669 -0.0713474 -0.0815765 -0.0699483 -0.0713474 -0.0593487 -0.0699483 -0.0584239 -0.0593487 -0.047433 -0.0584239 -0.0468908 -0.047433 -0.0355627 -0.0468908 -0.0352869 -0.0355627 -0.0237088 -0