# vtk DataFile Version 3.0
#This file was generated by the deal.II library on 2017/9/27 at 13:17:48
ASCII
DATASET UNSTRUCTURED_GRID

POINTS 2688 double
-5.63207 0 0
-5.3974 0 0
-5.63207 0.0714286 0
-5.3974 0.0714286 0
-5.3974 0 0
-5.16273 0 0
-5.3974 0.0714286 0
-5.16273 0.0714286 0
-5.16273 0 0
-4.92806 0 0
-5.16273 0.0714286 0
-4.92806 0.0714286 0
-4.92806 0 0
-4.69339 0 0
-4.92806 0.0714286 0
-4.69339 0.0714286 0
-4.69339 0 0
-4.45872 0 0
-4.69339 0.0714286 0
-4.45872 0.0714286 0
-4.45872 0 0
-4.22405 0 0
-4.45872 0.0714286 0
-4.22405 0.0714286 0
-4.22405 0 0
-3.98938 0 0
-4.22405 0.0714286 0
-3.98938 0.0714286 0
-3.98938 0 0
-3.75472 0 0
-3.98938 0.0714286 0
-3.75472 0.0714286 0
-3.75472 0 0
-3.52005 0 0
-3.75472 0.0714286 0
-3.52005 0.0714286 0
-3.52005 0 0
-3.28538 0 0
-3.52005 0.0714286 0
-3.28538 0.0714286 0
-3.28538 0 0
-3.05071 0 0
-3.28538 0.0714286 0
-3.05071 0.0714286 0
-3.05071 0 0
-2.81604 0 0
-3.05071 0.0714286 0
-2.81604 0.0714286 0
-2.81604 0 0
-2.58137 0 0
-2.81604 0.0714286 0
-2.58137 0.0714286 0
-2.58137 0 0
-2.3467 0 0
-2.58137 0.0714286 0
-2.3467 0.0714286 0
-2.3467 0 0
-2.11203 0 0
-2.3467 0.0714286 0
-2.11203 0.0714286 0
-2.11203 0 0
-1.87736 0 0
-2.11203 0.0714286 0
-1.87736 0.0714286 0
-1.87736 0 0
-1.64269 0 0
-1.87736 0.0714286 0
-1.64269 0.0714286 0
-1.64269 0 0
-1.40802 0 0
-1.64269 0.0714286 0
-1.40802 0.0714286 0
-1.40802 0 0
-1.17335 0 0
-1.40802 0.0714286 0
-1.17335 0.0714286 0
-1.17335 0 0
-0.938679 0 0
-1.17335 0.0714286 0
-0.938679 0.0714286 0
-0.938679 0 0
-0.704009 0 0
-0.938679 0.0714286 0
-0.704009 0.0714286 0
-0.704009 0 0
-0.469339 0 0
-0.704009 0.0714286 0
-0.469339 0.0714286 0
-0.469339 0 0
-0.23467 0 0
-0.469339 0.0714286 0
-0.23467 0.0714286 0
-0.23467 0 0
0 0 0
-0.23467 0.0714286 0
0 0.0714286 0
0 0 0
0.23467 0 0
0 0.0714286 0
0.23467 0.0714286 0
0.23467 0 0
0.469339 0 0
0.23467 0.0714286 0
0.469339 0.0714286 0
0.469339 0 0
0.704009 0 0
0.469339 0.0714286 0
0.704009 0.0714286 0
0.704009 0 0
0.938679 0 0
0.704009 0.0714286 0
0.938679 0.0714286 0
0.938679 0 0
1.17335 0 0
0.938679 0.0714286 0
1.17335 0.0714286 0
1.17335 0 0
1.40802 0 0
1.17335 0.0714286 0
1.40802 0.0714286 0
1.40802 0 0
1.64269 0 0
1.40802 0.0714286 0
1.64269 0.0714286 0
1.64269 0 0
1.87736 0 0
1.64269 0.0714286 0
1.87736 0.0714286 0
1.87736 0 0
2.11203 0 0
1.87736 0.0714286 0
2.11203 0.0714286 0
2.11203 0 0
2.3467 0 0
2.11203 0.0714286 0
2.3467 0.0714286 0
2.3467 0 0
2.58137 0 0
2.3467 0.0714286 0
2.58137 0.0714286 0
2.58137 0 0
2.81604 0 0
2.58137 0.0714286 0
2.81604 0.0714286 0
2.81604 0 0
3.05071 0 0
2.81604 0.0714286 0
3.05071 0.0714286 0
3.05071 0 0
3.28538 0 0
3.05071 0.0714286 0
3.28538 0.0714286 0
3.28538 0 0
3.52005 0 0
3.28538 0.0714286 0
3.52005 0.0714286 0
3.52005 0 0
3.75472 0 0
3.52005 0.0714286 0
3.75472 0.0714286 0
3.75472 0 0
3.98938 0 0
3.75472 0.0714286 0
3.98938 0.0714286 0
3.98938 0 0
4.22405 0 0
3.98938 0.0714286 0
4.22405 0.0714286 0
4.22405 0 0
4.45872 0 0
4.22405 0.0714286 0
4.45872 0.0714286 0
4.45872 0 0
4.69339 0 0
4.45872 0.0714286 0
4.69339 0.0714286 0
4.69339 0 0
4.92806 0 0
4.69339 0.0714286 0
4.92806 0.0714286 0
4.92806 0 0
5.16273 0 0
4.92806 0.0714286 0
5.16273 0.0714286 0
5.16273 0 0
5.3974 0 0
5.16273 0.0714286 0
5.3974 0.0714286 0
5.3974 0 0
5.63207 0 0
5.3974 0.0714286 0
5.63207 0.0714286 0
-5.63207 0.0714286 0
-5.3974 0.0714286 0
-5.63207 0.142857 0
-5.3974 0.142857 0
-5.3974 0.0714286 0
-5.16273 0.0714286 0
-5.3974 0.142857 0
-5.16273 0.142857 0
-5.16273 0.0714286 0
-4.92806 0.0714286 0
-5.16273 0.142857 0
-4.92806 0.142857 0
-4.92806 0.0714286 0
-4.69339 0.0714286 0
-4.92806 0.142857 0
-4.69339 0.142857 0
-4.69339 0.0714286 0
-4.45872 0.0714286 0
-4.69339 0.142857 0
-4.45872 0.142857 0
-4.45872 0.0714286 0
-4.22405 0.0714286 0
-4.45872 0.142857 0
-4.22405 0.142857 0
-4.22405 0.0714286 0
-3.98938 0.0714286 0
-4.22405 0.142857 0
-3.98938 0.142857 0
-3.98938 0.0714286 0
-3.75472 0.0714286 0
-3.98938 0.142857 0
-3.75472 0.142857 0
-3.75472 0.0714286 0
-3.52005 0.0714286 0
-3.75472 0.142857 0
-3.52005 0.142857 0
-3.52005 0.0714286 0
-3.28538 0.0714286 0
-3.52005 0.142857 0
-3.28538 0.142857 0
-3.28538 0.0714286 0
-3.05071 0.0714286 0
-3.28538 0.142857 0
-3.05071 0.142857 0
-3.05071 0.0714286 0
-2.81604 0.0714286 0
-3.05071 0.142857 0
-2.81604 0.142857 0
-2.81604 0.0714286 0
-2.58137 0.0714286 0
-2.81604 0.142857 0
-2.58137 0.142857 0
-2.58137 0.0714286 0
-2.3467 0.0714286 0
-2.58137 0.142857 0
-2.3467 0.142857 0
-2.3467 0.0714286 0
-2.11203 0.0714286 0
-2.3467 0.142857 0
-2.11203 0.142857 0
-2.11203 0.0714286 0
-1.87736 0.0714286 0
-2.11203 0.142857 0
-1.87736 0.142857 0
-1.87736 0.0714286 0
-1.64269 0.0714286 0
-1.87736 0.142857 0
-1.64269 0.142857 0
-1.64269 0.0714286 0
-1.40802 0.0714286 0
-1.64269 0.142857 0
-1.40802 0.142857 0
-1.40802 0.0714286 0
-1.17335 0.0714286 0
-1.40802 0.142857 0
-1.17335 0.142857 0
-1.17335 0.0714286 0
-0.938679 0.0714286 0
-1.17335 0.142857 0
-0.938679 0.142857 0
-0.938679 0.0714286 0
-0.704009 0.0714286 0
-0.938679 0.142857 0
-0.704009 0.142857 0
-0.704009 0.0714286 0
-0.469339 0.0714286 0
-0.704009 0.142857 0
-0.469339 0.142857 0
-0.469339 0.0714286 0
-0.23467 0.0714286 0
-0.469339 0.142857 0
-0.23467 0.142857 0
-0.23467 0.0714286 0
0 0.0714286 0
-0.23467 0.142857 0
0 0.142857 0
0 0.0714286 0
0.23467 0.0714286 0
0 0.142857 0
0.23467 0.142857 0
0.23467 0.0714286 0
0.469339 0.0714286 0
0.23467 0.142857 0
0.469339 0.142857 0
0.469339 0.0714286 0
0.704009 0.0714286 0
0.469339 0.142857 0
0.704009 0.142857 0
0.704009 0.0714286 0
0.938679 0.0714286 0
0.704009 0.142857 0
0.938679 0.142857 0
0.938679 0.0714286 0
1.17335 0.0714286 0
0.938679 0.142857 0
1.17335 0.142857 0
1.17335 0.0714286 0
1.40802 0.0714286 0
1.17335 0.142857 0
1.40802 0.142857 0
1.40802 0.0714286 0
1.64269 0.0714286 0
1.40802 0.142857 0
1.64269 0.142857 0
1.64269 0.0714286 0
1.87736 0.0714286 0
1.64269 0.142857 0
1.87736 0.142857 0
1.87736 0.0714286 0
2.11203 0.0714286 0
1.87736 0.142857 0
2.11203 0.142857 0
2.11203 0.0714286 0
2.3467 0.0714286 0
2.11203 0.142857 0
2.3467 0.142857 0
2.3467 0.0714286 0
2.58137 0.0714286 0
2.3467 0.142857 0
2.58137 0.142857 0
2.58137 0.0714286 0
2.81604 0.0714286 0
2.58137 0.142857 0
2.81604 0.142857 0
2.81604 0.0714286 0
3.05071 0.0714286 0
2.81604 0.142857 0
3.05071 0.142857 0
3.05071 0.0714286 0
3.28538 0.0714286 0
3.05071 0.142857 0
3.28538 0.142857 0
3.28538 0.0714286 0
3.52005 0.0714286 0
3.28538 0.142857 0
3.52005 0.142857 0
3.52005 0.0714286 0
3.75472 0.0714286 0
3.52005 0.142857 0
3.75472 0.142857 0
3.75472 0.0714286 0
3.98938 0.0714286 0
3.75472 0.142857 0
3.98938 0.142857 0
3.98938 0.0714286 0
4.22405 0.0714286 0
3.98938 0.142857 0
4.22405 0.142857 0
4.22405 0.0714286 0
4.45872 0.0714286 0
4.22405 0.142857 0
4.45872 0.142857 0
4.45872 0.0714286 0
4.69339 0.0714286 0
4.45872 0.142857 0
4.69339 0.142857 0
4.69339 0.0714286 0
4.92806 0.0714286 0
4.69339 0.142857 0
4.92806 0.142857 0
4.92806 0.0714286 0
5.16273 0.0714286 0
4.92806 0.142857 0
5.16273 0.142857 0
5.16273 0.0714286 0
5.3974 0.0714286 0
5.16273 0.142857 0
5.3974 0.142857 0
5.3974 0.0714286 0
5.63207 0.0714286 0
5.3974 0.142857 0
5.63207 0.142857 0
-5.63207 0.142857 0
-5.3974 0.142857 0
-5.63207 0.214286 0
-5.3974 0.214286 0
-5.3974 0.142857 0
-5.16273 0.142857 0
-5.3974 0.214286 0
-5.16273 0.214286 0
-5.16273 0.142857 0
-4.92806 0.142857 0
-5.16273 0.214286 0
-4.92806 0.214286 0
-4.92806 0.142857 0
-4.69339 0.142857 0
-4.92806 0.214286 0
-4.69339 0.214286 0
-4.69339 0.142857 0
-4.45872 0.142857 0
-4.69339 0.214286 0
-4.45872 0.214286 0
-4.45872 0.142857 0
-4.22405 0.142857 0
-4.45872 0.214286 0
-4.22405 0.214286 0
-4.22405 0.142857 0
-3.98938 0.142857 0
-4.22405 0.214286 0
-3.98938 0.214286 0
-3.98938 0.142857 0
-3.75472 0.142857 0
-3.98938 0.214286 0
-3.75472 0.214286 0
-3.75472 0.142857 0
-3.52005 0.142857 0
-3.75472 0.214286 0
-3.52005 0.214286 0
-3.52005 0.142857 0
-3.28538 0.142857 0
-3.52005 0.214286 0
-3.28538 0.214286 0
-3.28538 0.142857 0
-3.05071 0.142857 0
-3.28538 0.214286 0
-3.05071 0.214286 0
-3.05071 0.142857 0
-2.81604 0.142857 0
-3.05071 0.214286 0
-2.81604 0.214286 0
-2.81604 0.142857 0
-2.58137 0.142857 0
-2.81604 0.214286 0
-2.58137 0.214286 0
-2.58137 0.142857 0
-2.3467 0.142857 0
-2.58137 0.214286 0
-2.3467 0.214286 0
-2.3467 0.142857 0
-2.11203 0.142857 0
-2.3467 0.214286 0
-2.11203 0.214286 0
-2.11203 0.142857 0
-1.87736 0.142857 0
-2.11203 0.214286 0
-1.87736 0.214286 0
-1.87736 0.142857 0
-1.64269 0.142857 0
-1.87736 0.214286 0
-1.64269 0.214286 0
-1.64269 0.142857 0
-1.40802 0.142857 0
-1.64269 0.214286 0
-1.40802 0.214286 0
-1.40802 0.142857 0
-1.17335 0.142857 0
-1.40802 0.214286 0
-1.17335 0.214286 0
-1.17335 0.142857 0
-0.938679 0.142857 0
-1.17335 0.214286 0
-0.938679 0.214286 0
-0.938679 0.142857 0
-0.704009 0.142857 0
-0.938679 0.214286 0
-0.704009 0.214286 0
-0.704009 0.142857 0
-0.469339 0.142857 0
-0.704009 0.214286 0
-0.469339 0.214286 0
-0.469339 0.142857 0
-0.23467 0.142857 0
-0.469339 0.214286 0
-0.23467 0.214286 0
-0.23467 0.142857 0
0 0.142857 0
-0.23467 0.214286 0
0 0.214286 0
0 0.142857 0
0.23467 0.142857 0
0 0.214286 0
0.23467 0.214286 0
0.23467 0.142857 0
0.469339 0.142857 0
0.23467 0.214286 0
0.469339 0.214286 0
0.469339 0.142857 0
0.704009 0.142857 0
0.469339 0.214286 0
0.704009 0.214286 0
0.704009 0.142857 0
0.938679 0.142857 0
0.704009 0.214286 0
0.938679 0.214286 0
0.938679 0.142857 0
1.17335 0.142857 0
0.938679 0.214286 0
1.17335 0.214286 0
1.17335 0.142857 0
1.40802 0.142857 0
1.17335 0.214286 0
1.40802 0.214286 0
1.40802 0.142857 0
1.64269 0.142857 0
1.40802 0.214286 0
1.64269 0.214286 0
1.64269 0.142857 0
1.87736 0.142857 0
1.64269 0.214286 0
1.87736 0.214286 0
1.87736 0.142857 0
2.11203 0.142857 0
1.87736 0.214286 0
2.11203 0.214286 0
2.11203 0.142857 0
2.3467 0.142857 0
2.11203 0.214286 0
2.3467 0.214286 0
2.3467 0.142857 0
2.58137 0.142857 0
2.3467 0.214286 0
2.58137 0.214286 0
2.58137 0.142857 0
2.81604 0.142857 0
2.58137 0.214286 0
2.81604 0.214286 0
2.81604 0.142857 0
3.05071 0.142857 0
2.81604 0.214286 0
[...]
POINT_DATA 2688
SCALARS x1_displacement double 1
LOOKUP_TABLE default
-4.30288e-17 -0.0212631 -3.8783e-17 -0.0211058 -0.0212631 -0.0394238 -0.0211058 -0.0391734 -0.0394238 -0.0509931 -0.0391734 -0.0507437 -0.0509931 -0.0522569 -0.0507437 -0.0520778 -0.0522569 -0.0407968 -0.0520778 -0.040695 -0.0407968 -0.0186536 -0.040695 -0.0185957 -0.0186536 0.00597848 -0.0185957 0.00599319 0.00597848 0.0234724 0.00599319 0.0233942 0.0234724 0.0294025 0.0233942 0.0291963 0.0294025 0.0250056 0.0291963 0.0246989 0.0250056 0.0139629 0.0246989 0.0136313 0.0139629 8.7733e-05 0.0136313 -0.00019084 8.7733e-05 -0.013453 -0.00019084 -0.013633 -0.013453 -0.0242033 -0.013633 -0.0242796 -0.0242033 -0.0303737 -0.0242796 -0.0303692 -0.0303737 -0.0309681 -0.0303692 -0.0309145 -0.0309681 -0.0261137 -0.0309145 -0.0260378 -0.0261137 -0.0173367 -0.0260378 -0.0172569 -0.0173367 -0.00730947 -0.0172569 -0.00723978 -0.00730947 0.00110756 -0.00723978 0.00115638 0.00110756 0.00597694 0.00115638 0.00600106 0.00597694 0.00679691 0.00600106 0.00680214 0.00679691 0.00430656 0.00680214 0.00430458 0.00430656 0 0.00430458 0 0 -0.00430656 0 -0.00430458 -0.00430656 -0.00679691 -0.00430458 -0.00680214 -0.00679691 -0.00597694 -0.00680214 -0.00600106 -0.00597694 -0.00110756 -0.00600106 -0.00115638 -0.00110756 0.00730947 -0.00115638 0.00723978 0.00730947 0.0173367 0.00723978 0.0172569 0.0173367 0.0261137 0.0172569 0.0260378 0.0261137 0.0309681 0.0260378 0.0309145 0.0309681 0.0303737 0.0309145 0.0303692 0.0303737 0.0242033 0.0303692 0.0242796 0.0242033 0.013453 0.0242796 0.013633 0.013453 -8.7733e-05 0.013633 0.00019084 -8.7733e-05 -0.0139629 0.00019084 -0.0136313 -0.0139629 -0.0250056 -0.0136313 -0.0246989 -0.0250056 -0.0294025 -0.0246989 -0.0291963 -0.0294025 -0.0234724 -0.0291963 -0.0233942 -0.0234724 -0.00597848 -0.0233942 -0.00599319 -0.00597848 0.0186536 -0.00599319 0.0185957 0.0186536 0.0407968 0.0185957 0.040695 0.0407968 0.0522569 0.040695 0.0520778 0.0522569 0.0509931 0.0520778 0.0507437 0.0509931 0.0394238 0.0507437 0.0391734 0.0394238 0.0212631 0.0391734 0.0211058 0.0212631 -4.30288e-17 0.0211058 -3.8783e-17 -3.8783e-17 -0.0211058 -2.92226e-17 -0.0205952 -0.0211058 -0.0391734 -0.0205952 -0.0383558 -0.0391734 -0.0507437 -0.0383558 -0.0499289 -0.0507437 -0.0520778 -0.0499289 -0.0515081 -0.0520778 -0.040695 -0.0515081 -0.0403964 -0.040695 -0.0185957 -0.0403964 -0.0184346 -0.0185957 0.00599319 -0.0184346 0.0060354 0.00599319 0.0233942 0.0060354 0.0231435 0.0233942 0.0291963 0.0231435 0.0285426 0.0291963 0.0246989 0.0285426 0.0237525 0.0246989 0.0136313 0.0237525 0.012644 0.0136313 -0.00019084 0.012644 -0.000982547 -0.00019084 -0.013633 -0.000982547 -0.0141074 -0.013633 -0.0242796 -0.0141074 -0.024441 -0.0242796 -0.0303692 -0.024441 -0.0303025 -0.0303692 -0.0309145 -0.0303025 -0.0307232 -0.0309145 -0.0260378 -0.0307232 -0.0258017 -0.0260378 -0.0172569 -0.0258017 -0.0170257 -0.0172569 -0.00723978 -0.0170257 -0.00704968 -0.00723978 0.00115638 -0.00704968 0.00127602 0.00115638 0.00600106 0.00127602 0.00604242 0.00600106 0.00680214 0.00604242 0.00678971 0.00680214 0.00430458 0.00678971 0.00428182 0.00430458 0 0.00428182 0 0 -0.00430458 0 -0.00428182 -0.00430458 -0.00680214 -0.00428182 -0.00678971 -0.00680214 -0.00600106 -0.00678971 -0.00604242 -0.00600106 -0.00115638 -0.00604242 -0.00127602 -0.00115638 0.00723978 -0.00127602 0.00704968 0.00723978 0.0172569 0.00704968 0.0170257 0.0172569 0.0260378 0.0170257 0.0258017 0.0260378 0.0309145 0.0258017 0.0307232 0.0309145 0.0303692 0.0307232 0.0303025 0.0303692 0.0242796 0.0303025 0.024441 0.0242796 0.013633 0.024441 0.0141074 0.013633 0.00019084 0.0141074 0.000982547 0.00019084 -0.0136313 0.000982547 -0.012644 -0.0136313 -0.0246989 -0.012644 -0.0237525 -0.0246989 -0.0291963 -0.0237525 -0.0285426 -0.0291963 -0.0233942 -0.0285426 -0.0231435 -0.0233942 -0.00599319 -0.0231435 -0.0060354 -0.00599319 0.0185957 -0.0060354 0.0184346 0.0185957 0.040695 0.0184346 0.0403964 0.040695 0.0520778 0.0403964 0.0515081 0.0520778 0.0507437 0.0515081 0.0499289 0.0507437 0.0391734 0.0499289 0.0383558 0.0391734 0.0211058 0.0383558 0.0205952 0.0211058 -3.8783e-17 0.0205952 -2.92226e-17 -2.92226e-17 -0.0205952 -1.97021e-17 -0.0197115 -0.0205952 -0.0383558 -0.0197115 -0.0369383 -0.0383558 -0.0499289 -0.0369383 -0.0485209 -0.0499289 -0.0515081 -0.0485209 -0.0505446 -0.0515081 -0.0403964 -0.0505446 -0.0399209 -0.0403964 -0.0184346 -0.0399209 -0.0181846 -0.0184346 0.0060354 -0.0181846 0.00610725 0.0060354 0.0231435 0.00610725 0.0227201 0.0231435 0.0285426 0.0227201 0.0274335 0.0285426 0.0237525 0.0274335 0.0221693 0.0237525 0.012644 0.0221693 0.0110312 0.012644 -0.000982547 0.0110312 -0.00223252 -0.000982547 -0.0141074 -0.00223252 -0.0148123 -0.0141074 -0.024441 -0.0148123 -0.0246321 -0.024441 -0.0303025 -0.0246321 -0.0301376 -0.0303025 -0.0307232 -0.0301376 -0.0303805 -0.0307232 -0.0258017 -0.0303805 -0.0254093 -0.0258017 -0.0170257 -0.0254093 -0.0166568 -0.0170257 -0.00704968 -0.0166568 -0.00675769 -0.00704968 0.00127602 -0.00675769 0.00144487 0.00127602 0.00604242 0.00144487 0.00607798 0.00604242 0.00678971 0.00607798 0.00673934 0.00678971 0.00428182 0.00673934 0.00422625 0.00428182 0 0.00422625 0 0 -0.00428182 0 -0.00422625 -0.00428182 -0.00678971 -0.00422625 -0.00673934 -0.00678971 -0.00604242 -0.00673934 -0.00607798 -0.00604242 -0.00127602 -0.00607798 -0.00144487 -0.00127602 0.00704968 -0.00144487 0.00675769 0.00704968 0.0170257 0.00675769 0.0166568 0.0170257 0.0258017 0.0166568 0.0254093 0.0258017 0.0307232 0.0254093 0.0303805 0.0307232 0.0303025 0.0303805 0.0301376 0.0303025 0.024441 0.0301376 0.0246321 0.024441 0.0141074 0.0246321 0.0148123 0.0141074 0.000982547 0.0148123 0.00223252 0.000982547 -0.012644 0.00223252 -0.0110312 -0.012644 -0.0237525 -0.0110312 -0.0221693 -0.0237525 -0.0285426 -0.0221693 -0.0274335 -0.0285426 -0.0231435 -0.0274335 -0.0227201 -0.0231435 -0.0060354 -0.0227201 -0.00610725 -0.0060354 0.0184346 -0.00610725 0.0181846 0.0184346 0.0403964 0.0181846 0.0399209 0.0403964 0.0515081 0.0399209 0.0505446 0.0515081 0.0499289 0.0505446 0.0485209 0.0499289 0.0383558 0.0485209 0.0369383 0.0383558 0.0205952 0.0369383 0.0197115 0.0205952 -2.92226e-17 0.0197115 -1.97021e-17 -1.97021e-17 -0.0197115 -1.90521e-17 -0.0184031 -0.0197115 -0.0369383 -0.0184031 -0.0348248 -0.0369383 -0.0485209 -0.0348248 -0.0464053 -0.0485209 -0.0505446 -0.0464053 -0.049099 -0.0505446 -0.0399209 -0.049099 -0.0392336 -0.0399209 -0.0181846 -0.0392336 -0.0178483 -0.0181846 0.00610725 -0.0178483 0.00617999 0.00610725 0.0227201 0.00617999 0.0220559 0.0227201 0.0274335 0.0220559 0.0257808 0.0274335 0.0221693 0.0257808 0.0198875 0.0221693 0.0110312 0.0198875 0.00878698 0.0110312 -0.00223252 0.00878698 -0.00389332 -0.00223252 -0.0148123 -0.00389332 -0.015669 -0.0148123 -0.0246321 -0.015669 -0.0247671 -0.0246321 -0.0301376 -0.0247671 -0.0298011 -0.0301376 -0.0303805 -0.0298011 -0.0298369 -0.0303805 -0.0254093 -0.0298369 -0.0248391 -0.0254093 -0.0166568 -0.0248391 -0.0161544 -0.0166568 -0.00675769 -0.0161544 -0.00638925 -0.00675769 0.00144487 -0.00638925 0.00162167 0.00144487 0.00607798 0.00162167 0.00605944 0.00607798 0.00673934 0.00605944 0.00660823 0.00673934 0.00422625 0.00660823 0.00411279 0.00422625 0 0.00411279 0 0 -0.00422625 0 -0.00411279 -0.00422625 -0.00673934 -0.00411279 -0.00660823 -0.00673934 -0.00607798 -0.00660823 -0.00605944 -0.00607798 -0.00144487 -0.00605944 -0.00162167 -0.00144487 0.00675769 -0.00162167 0.00638925 0.00675769 0.0166568 0.00638925 0.0161544 0.0166568 0.0254093 0.0161544 0.0248391 0.0254093 0.0303805 0.0248391 0.0298369 0.0303805 0.0301376 0.0298369 0.0298011 0.0301376 0.0246321 0.0298011 0.0247671 0.0246321 0.0148123 0.0247671 0.015669 0.0148123 0.00223252 0.015669 0.00389332 0.00223252 -0.0110312 0.00389332 -0.00878698 -0.0110312 -0.0221693 -0.00878698 -0.0198875 -0.0221693 -0.0274335 -0.0198875 -0.0257808 -0.0274335 -0.0227201 -0.0257808 -0.0220559 -0.0227201 -0.00610725 -0.0220559 -0.00617999 -0.00610725 0.0181846 -0.00617999 0.0178483 0.0181846 0.0399209 0.0178483 0.0392336 0.0399209 0.0505446 0.0392336 0.049099 0.0505446 0.0485209 0.049099 0.0464053 0.0485209 0.0369383 0.0464053 0.0348248 0.0369383 0.0197115 0.0348248 0.0184031 0.0197115 -1.97021e-17 0.0184031 -1.90521e-17 -1.90521e-17 -0.0184031 -1.71871e-17 -0.0165951 -0.0184031 -0.0348248 -0.0165951 -0.0318662 -0.0348248 -0.0464053 -0.0318662 -0.0433895 -0.0464053 -0.049099 -0.0433895 -0.0470049 -0.049099 -0.0392336 -0.0470049 -0.0382516 -0.0392336 -0.0178483 -0.0382516 -0.0174187 -0.0178483 0.00617999 -0.0174187 0.00619724 0.00617999 0.0220559 0.00619724 0.0210195 0.0220559 0.0257808 0.0210195 0.0234215 0.0257808 0.0198875 0.0234215 0.0167883 0.0198875 0.00878698 0.0167883 0.00587853 0.00878698 -0.00389332 0.00587853 -0.00591921 -0.00389332 -0.015669 -0.00591921 -0.0165828 -0.015669 -0.0247671 -0.0165828 -0.0247329 -0.0247671 -0.0298011 -0.0247329 -0.0291864 -0.0298011 -0.0298369 -0.0291864 -0.0290122 -0.0298369 -0.0248391 -0.0290122 -0.0240484 -0.0248391 -0.0161544 -0.0240484 -0.0155154 -0.0161544 -0.00638925 -0.0155154 -0.00597686 -0.00638925 0.00162167 -0.00597686 0.00174666 0.00162167 0.00605944 0.00174666 0.0059151 0.00605944 0.00660823 0.0059151 0.00633297 0.00660823 0.00411279 0.00633297 0.0039046 0.00411279 0 0.0039046 0 0 -0.00411279 0 -0.0039046 -0.00411279 -0.00660823 -0.0039046 -0.00633297 -0.00660823 -0.00605944 -0.00633297 -0.0059151 -0.00605944 -0.00162167 -0.0059151 -0.00174666 -0.00162167 0.00638925 -0.00174666 0.00597686 0.00638925 0.0161544 0.00597686 0.0155154 0.0161544 0.0248391 0.0155154 0.0240484 0.0248391 0.0298369 0.0240484 0.0290122 0.0298369 0.0298011 0.0290122 0.0291864 0.0298011 0.0247671 0.0291864 0.0247329 0.0247671 0.015669 0.0247329 0.0165828 0.015669 0.00389332 0.0165828 0.00591921 0.00389332 -0.00878698 0.00591921 -0.00587853 -0.00878698 -0.0198875 -0.00587853 -0.0167883 -0.0198875 -0.0257808 -0.0167883 -0.0234215 -0.0257808 -0.0220559 -0.0234215 -0.0210195 -0.0220559 -0.00617999 -0.0210195 -0.00619724 -0.00617999 0.0178483 -0.00619724 0.0174187 0.0178483 0.0392336 0.0174187 0.0382516 0.0392336 0.049099 0.0382516 0.0470049 0.049099 0.0464053 0.0470049 0.0433895 0.0464053 0.0348248 0.0433895 0.0318662 0.0348248 0.0184031 0.0318662 0.0165951 0.0184031 -1.90521e-17 0.0165951 -1.71871e-17 -1.71871e-17 -0.0165951 -1.27823e-17 -0.0141989 -0.0165951 -0.0318662 -0.0141989 -0.0278733 -0.0318662 -0.0433895 -0.0278733 -0.039208 -0.0433895 -0.0470049 -0.039208 -0.0440146 -0.0470049 -0.0382516 -0.0440146 -0.0368418 -0.0382516 -0.0174187 -0.0368418 -0.0168802 -0.0174187 0.00619724 -0.0168802 0.00607193 0.00619724 0.0210195 0.00607193 0.0194103 0.0210195 0.0234215 0.0194103 0.0201172 0.0234215 0.0167883 0.0201172 0.0127052 0.0167883 0.00587853 0.0127052 0.00225758 0.00587853 -0.00591921 0.00225758 -0.00825881 -0.00591921 -0.0165828 -0.00825881 -0.0174415 -0.0165828 -0.0247329 -0.0174415 -0.0243903 -0.0247329 -0.0291864 -0.0243903 -0.0281565 -0.0291864 -0.0290122 -0.0281565 -0.0277973 -0.0290122 -0.0240484 -0.0277973 -0.0229747 -0.0240484 -0.0155154 -0.0229747 -0.0147306 -0.0155154 -0.00597686 -0.0147306 -0.00556169 -0.00597686 0.00174666 -0.00556169 0.00174035 0.00174666 0.0059151 0.00174035 0.00554939 0.0059151 0.00633297 0.00554939 0.00583002 0.00633297 0.0039046 0.00583002 0.00355372 0.0039046 0 0.00355372 0 0 -0.0039046 0 -0.00355372 -0.0039046 -0.00633297 -0.00355372 -0.00583002 -0.00633297 -0.0059151 -0.00583002 -0.00554939 -0.0059151 -0.00174666 -0.00554939 -0.00174035 -0.00174666 0.00597686 -0.00174035 0.00556169 0.00597686 0.0155154 0.00556169 0.0147306 0.0155154 0.0240484 0.0147306 0.0229747 0.0240484 0.0290122 0.0229747 0.0277973 0.0290122 0.0291864 0.0277973 0.0281565 0.0291864 0.0247329 0.0281565 0.0243903 0.0247329 0.0165828 0.0243903 0.0174415 0.0165828 0.00591921 0.0174415 0.00825881 0.00591921 -0.00587853 0.00825881 -0.00225758 -0.00587853 -0.0167883 -0.00225758 -0.0127052 -0.0167883 -0.0234215 -0.0127052 -0.0201172 -0.0234215 -0.0210195 -0.0201172 -0.0194103 -0.0210195 -0.00619724 -0.0194103 -0.00607193 -0.00619724 0.0174187 -0.00607193 0.0168802 0.0174187 0.0382516 0.0168802 0.0368418 0.0382516 0.0470049 0.0368418 0.0440146 0.0470049 0.0433895 0.0440146 0.039208 0.0433895 0.0318662 0.039208 0.0278733 0.0318662 0.0165951 0.0278733 0.0141989 0.0165951 -1.71871e-17 0.0141989 -1.27823e-17 -1.27823e-17 -0.0141989 -1.4563e-17 -0.0111262 -0.0141989 -0.0278733 -0.0111262 -0.0226329 -0.0278733 -0.039208 -0.0226329 -0.0335256 -0.039208 -0.0440146 -0.0335256 -0.0397858 -0.0440146 -0.0368418 -0.0397858 -0.0348086 -0.0368418 -0.0168802 -0.0348086 -0.0162083 -0.0168802 0.00607193 -0.0162083 0.00567649 0.00607193 0.0194103 0.00567649 0.0169421 0.0194103 0.0201172 0.0169421 0.015548 0.0201172 0.0127052 0.015548 0.0074333 0.0127052 0.00225758 0.0074333 -0.00212553 0.00225758 -0.00825881 -0.00212553 -0.0108473 -0.00825881 -0.0174415 -0.0108473 -0.0181143 -0.0174415 -0.0243903 -0.0181143 -0.0235755 -0.0243903 -0.0281565 -0.0235755 -0.0265434 -0.0281565 -0.0277973 -0.0265434 -0.0260527 -0.0277973 -0.0229747 -0.0260527 -0.0215349 -0.0229747 -0.0147306 -0.0215349 -0.0137862 -0.0147306 -0.00556169 -0.0137862 -0.00519639 -0.00556169 0.00174035 -0.00519639 0.0014998 0.00174035 0.00554939 0.0014998 0.00484033 0.00554939 0.00583002 0.00484033 0.00499513 0.00583002 0.00355372 0.00499513 0.00300147 0.00355372 0 0.00300147 0 0 -0.00355372 0 -0.00300147 -0.00355372 -0.00583002 -0.00300147 -0.00499513 -0.00583002 -0.00554939 -0.00499513 -0.00484033 -0.00554939 -0.00174035 -0.00484033 -0.0014998 -0.00174035 0.00556169 -0.0014998 0.00519639 0.00556169 0.0147306 0.00519639 0.0137862 0.0147306 0.0229747 0.0137862 0.0215349 0.0229747 0.0277973 0.0215349 0.0260527 0.0277973 0.0281565 0.0260527 0.0265434 0.0281565 0.0243903 0.0265434 0.0235755 0.0243903 0.0174415 0.0235755 0.0181143 0.0174415 0.00825881 0.0181143 0.0108473 0.00825881 -0.00225758 0.0108473 0.00212553 -0.00225758 -0.0127052 0.00212553 -0.0074333 -0.0127052 -0.0201172 -0.0074333 -0.015548 -0.0201172 -0.0194103 -0.015548 -0.0169421 -0.0194103 -0.00607193 -0.0169421 -0.00567649 -0.00607193 0.0168802 -0.00567649 0.0162083 0.0168802 0.0368418 0.0162083 0.0348086 0.0368418 0.0440146 0.0348086 0.0397858 0.0440146 0.039208 0.0397858 0.0335256 0.039208 0.0278733 0.0335256 0.0226329 0.0278733 0.0141989 0.0226329 0.0111262 0.0141989 -1.27823e-17 0.0111262 -1.4563e-17 -1.4563e-17 -0.0111262 -1.44883e-17 -0.00730549 -0.0111262 -0.0226329 -0.00730549 -0.0159318 -0.0226329 -0.0335256 -0.0159318 -0.0259426 -0.0335256 -0.0397858 -0.0259426 -0.0338591 -0.0397858 -0.0348086 -0.0338591 -0.0318696 -0.0348086 -0.0162083 -0.0318696 -0.0153662 -0.0162083 0.00567649 -0.0153662 0.00482369 0.00567649 0.0169421 0.00482369 0.0132129 0.0169421 0.015548 0.0132129 0.00930427 0.015548 0.0074333 0.00930427 0.000746368 0.0074333 -0.00212553 0.000746368 -0.00730325 -0.00212553 -0.0108473 -0.00730325 -0.0135984 -0.0108473 -0.0181143 -0.0135984 -0.0184514 -0.0181143 -0.0235755 -0.0184514 -0.0221016 -0.0235755 -0.0265434 -0.0221016 -0.0241479 -0.0265434 -0.0260527 -0.0241479 -0.0236052 -0.0260527 -0.0215349 -0.0236052 -0.0196221 -0.0215349 -0.0137862 -0.0196221 -0.0126636 -0.0137862 -0.00519639 -0.0126636 -0.00494967 -0.00519639 0.0014998 -0.00494967 0.000892504 0.0014998 0.00484033 0.000892504 0.00363534 0.00484033 0.00499513 0.00363534 0.00370244 0.00499513 0.00300147 0.00370244 0.00217915 0.00300147 0 0.00217915 0 0 -0.00300147 0 -0.00217915 -0.00300147 -0.00499513 -0.00217915 -0.00370244 -0.00499513 -0.00484033 -0.00370244 -0.00363534 -0.00484033 -0.0014998 -0.00363534 -0.000892504 -0.0014998 0.00519639 -0.000892504 0.00494967 0.00519639 0.0137862 0.00494967 0.0126636 0.0137862 0.0215349 0.0126636 0.0196221 0.0215349 0.0260527 0.0196221 0.0236052 0.0260527 0.0265434 0.0236052 0.0241479 0.0265434 0.0235755 0.0241479 0.0221016 0.0235755 0.0181143 0.0221016 0.0184514 0.0181143 0.0108473 0.0184514 0.0135984 0.0108473 0.00212553 0.0135984 0.00730325 0.00212553 -0.0074333 0.00730325 -0.000746368 -0.0074333 -0.015548 -0.000746368 -0.00930427 -0.015548 -0.0169421 -0.00930427 -0.0132129 -0.0169421 -0.00567649 -0.0132129 -0.00482369 -0.00567649 0.0162083 -0.00482369 0.0153662 0.0162083 0.0348086 0.0153662 0.0318696 0.0348086 0.0397858 0.0318696 0.0338591 0.0397858 0.0335256 0.0338591 0.0259426 0.0335256 0.0226329 0.0259426 0.0159318 0.0226329 0.0111262 0.0159318 0.00730549 0.0111262 -1.4563e-17 0.00730549 -1.44883e-17 -1.44883e-17 -0.00730549 -1.23599e-17 -0.00270057 -0.00730549 -0.0159318 -0.00270057 -0.00759086 -0.0159318 -0.0259426 -0.00759086 -0.0160112 -0.0259426 -0.0338591 -0.0160112 -0.0256224 -0.0338591 -0.0318696 -0.0256224 -0.0276096 -0.0318696 -0.0153662 -0.0276096 -0.0142985 -0.0153662 0.00482369 -0.0142985 0.00323145 0.00482369 0.0132129 0.00323145 0.0076574 0.0132129 0.00930427 0.0076574 0.000881036 0.00930427 0.000746368 0.000881036 -0.00757461 0.000746368 -0.00730325 -0.00757461 -0.0132685 -0.00730325 -0.0135984 -0.0132685 -0.0163994 -0.0135984 -0.0184514 -0.0163994 -0.0182874 -0.0184514 -0.0221016 -0.0182874 -0.0197618 -0.0221016 -0.0241479 -0.0197618 -0.0207383 -0.0241479 -0.0236052 -0.0207383 -0.0202417 -0.0236052 -0.0196221 -0.0202417 -0.0170991 -0.0196221 -0.0126636 -0.0170991 -0.0113393 -0.0126636 -0.00494967 -0.0113393 -0.00491323 -0.00494967 0.000892504 -0.00491323 -0.000253166 0.000892504 0.00363534 -0.000253166 0.00174538 0.00363534 0.00370244 0.00174538 0.00180402 0.00370244 0.00217915 0.00180402 0.00100946 0.00217915 0 0.00100946 0 0 -0.00217915 0 -0.00100946 -0.00217915 -0.00370244 -0.00100946 -0.00180402 -0.00370244 -0.00363534 -0.00180402 -0.00174538 -0.00363534 -0.000892504 -0.00174538 0.000253166 -0.000892504 0.00494967 0.000253166 0.00491323 0.00494967 0.0126636 0.00491323 0.0113393 0.0126636 0.0196221 0.0113393 0.0170991 0.0196221 0.0236052 0.0170991 0.0202417 0.0236052 0.0241479 0.0202417 0.0207383 0.0241479 0.0221016 0.0207383 0.0197618 0.0221016 0.0184514 0.0197618 0.0182874 0.0184514 0.0135984 0.0182874 0.0163994 0.0135984 0.00730325 0.0163994 0.0132685 0.00730325 -0.000746368 0.0132685 0.00757461 -0.000746368 -0.00930427 0.00757461 -0.000881036 -0.00930427 -0.0132129 -0.000881036 -0.0076574 -0.0132129 -0.00482369 -0.0076574 -0.00323145 -0.00482369 0.0153662 -0.00323145 0.0142985 0.0153662 0.0318696 0.0142985 0.0276096 0.0318696 0.0338591 0.0276096 0.0256224 0.0338591 0.0259426 0.0256224 0.0160112 0.0259426 0.0159318 0.0160112 0.00759086 0.0159318 0.00730549 0.00759086 0.00270057 0.00730549 -1.44883e-17 0.00270057 -1.23599e-17 -1.23599e-17 -0.00270057 -9.97784e-18 0.00267414 -0.00270057 -0.00759086 0.00267414 0.00248628 -0.00759086 -0.0160112 0.00248628 -0.00327419 -0.0160112 -0.0256224 -0.00327419 -0.0142635 -0.0256224 -0.0276096 -0.0142635 -0.0213981 -0.0276096 -0.0142985 -0.0213981 -0.0129165 -0.0142985 0.00323145 -0.0129165 0.000456483 0.00323145 0.0076574 0.000456483 -0.000529539 0.0076574 0.000881036 -0.000529539 -0.0103136 0.000881036 -0.00757461 -0.0103136 -0.017692 -0.00757461 -0.0132685 -0.017692 -0.0199516 -0.0132685 -0.0163994 -0.0199516 -0.01911 -0.0163994 -0.0182874 -0.01911 -0.0174469 -0.0182874 -0.0197618 -0.0174469 -0.0163356 -0.0197618 -0.0207383 -0.0163356 -0.0160488 -0.0207383 -0.0202417 -0.0160488 -0.0156976 -0.0202417 -0.0170991 -0.0156976 -0.0137865 -0.0170991 -0.0113393 -0.0137865 -0.00978349 -0.0113393 -0.00491323 -0.00978349 -0.0052127 -0.00491323 -0.000253166 -0.0052127 -0.00216233 -0.000253166 0.00174538 -0.00216233 -0.00106219 0.00174538 0.00180402 -0.00106219 -0.000869059 0.00180402 0.00100946 -0.000869059 -0.000590446 0.00100946 0 -0.000590446 0 0 -0.00100946 0 0.000590446 -0.00100946 -0.00180402 0.000590446 0.000869059 -0.00180402 -0.00174538 0.000869059 0.00106219 -0.00174538 0.000253166 0.00106219 0.00216233 0.000253166 0.00491323 0.00216233 0.0052127 0.00491323 0.0113393 0.0052127 0.00978349 0.0113393 0.0170991 0.00978349 0.0137865 0.0170991 0.0202417 0.0137865 0.0156976 0.0202417 0.0207383 0.0156976 0.0160488 0.0207383 0.0197618 0.0160488 0.0163356 0.0197618 0.0182874 0.016335