# vtk DataFile Version 3.0
#This file was generated by the deal.II library on 2017/9/27 at 13:18:24
ASCII
DATASET UNSTRUCTURED_GRID

POINTS 2688 double
-5.63207 0 0
-5.3974 0 0
-5.63207 0.0714286 0
-5.3974 0.0714286 0
-5.3974 0 0
-5.16273 0 0
-5.3974 0.0714286 0
-5.16273 0.0714286 0
-5.16273 0 0
-4.92806 0 0
-5.16273 0.0714286 0
-4.92806 0.0714286 0
-4.92806 0 0
-4.69339 0 0
-4.92806 0.0714286 0
-4.69339 0.0714286 0
-4.69339 0 0
-4.45872 0 0
-4.69339 0.0714286 0
-4.45872 0.0714286 0
-4.45872 0 0
-4.22405 0 0
-4.45872 0.0714286 0
-4.22405 0.0714286 0
-4.22405 0 0
-3.98938 0 0
-4.22405 0.0714286 0
-3.98938 0.0714286 0
-3.98938 0 0
-3.75472 0 0
-3.98938 0.0714286 0
-3.75472 0.0714286 0
-3.75472 0 0
-3.52005 0 0
-3.75472 0.0714286 0
-3.52005 0.0714286 0
-3.52005 0 0
-3.28538 0 0
-3.52005 0.0714286 0
-3.28538 0.0714286 0
-3.28538 0 0
-3.05071 0 0
-3.28538 0.0714286 0
-3.05071 0.0714286 0
-3.05071 0 0
-2.81604 0 0
-3.05071 0.0714286 0
-2.81604 0.0714286 0
-2.81604 0 0
-2.58137 0 0
-2.81604 0.0714286 0
-2.58137 0.0714286 0
-2.58137 0 0
-2.3467 0 0
-2.58137 0.0714286 0
-2.3467 0.0714286 0
-2.3467 0 0
-2.11203 0 0
-2.3467 0.0714286 0
-2.11203 0.0714286 0
-2.11203 0 0
-1.87736 0 0
-2.11203 0.0714286 0
-1.87736 0.0714286 0
-1.87736 0 0
-1.64269 0 0
-1.87736 0.0714286 0
-1.64269 0.0714286 0
-1.64269 0 0
-1.40802 0 0
-1.64269 0.0714286 0
-1.40802 0.0714286 0
-1.40802 0 0
-1.17335 0 0
-1.40802 0.0714286 0
-1.17335 0.0714286 0
-1.17335 0 0
-0.938679 0 0
-1.17335 0.0714286 0
-0.938679 0.0714286 0
-0.938679 0 0
-0.704009 0 0
-0.938679 0.0714286 0
-0.704009 0.0714286 0
-0.704009 0 0
-0.469339 0 0
-0.704009 0.0714286 0
-0.469339 0.0714286 0
-0.469339 0 0
-0.23467 0 0
-0.469339 0.0714286 0
-0.23467 0.0714286 0
-0.23467 0 0
0 0 0
-0.23467 0.0714286 0
0 0.0714286 0
0 0 0
0.23467 0 0
0 0.0714286 0
0.23467 0.0714286 0
0.23467 0 0
0.469339 0 0
0.23467 0.0714286 0
0.469339 0.0714286 0
0.469339 0 0
0.704009 0 0
0.469339 0.0714286 0
0.704009 0.0714286 0
0.704009 0 0
0.938679 0 0
0.704009 0.0714286 0
0.938679 0.0714286 0
0.938679 0 0
1.17335 0 0
0.938679 0.0714286 0
1.17335 0.0714286 0
1.17335 0 0
1.40802 0 0
1.17335 0.0714286 0
1.40802 0.0714286 0
1.40802 0 0
1.64269 0 0
1.40802 0.0714286 0
1.64269 0.0714286 0
1.64269 0 0
1.87736 0 0
1.64269 0.0714286 0
1.87736 0.0714286 0
1.87736 0 0
2.11203 0 0
1.87736 0.0714286 0
2.11203 0.0714286 0
2.11203 0 0
2.3467 0 0
2.11203 0.0714286 0
2.3467 0.0714286 0
2.3467 0 0
2.58137 0 0
2.3467 0.0714286 0
2.58137 0.0714286 0
2.58137 0 0
2.81604 0 0
2.58137 0.0714286 0
2.81604 0.0714286 0
2.81604 0 0
3.05071 0 0
2.81604 0.0714286 0
3.05071 0.0714286 0
3.05071 0 0
3.28538 0 0
3.05071 0.0714286 0
3.28538 0.0714286 0
3.28538 0 0
3.52005 0 0
3.28538 0.0714286 0
3.52005 0.0714286 0
3.52005 0 0
3.75472 0 0
3.52005 0.0714286 0
3.75472 0.0714286 0
3.75472 0 0
3.98938 0 0
3.75472 0.0714286 0
3.98938 0.0714286 0
3.98938 0 0
4.22405 0 0
3.98938 0.0714286 0
4.22405 0.0714286 0
4.22405 0 0
4.45872 0 0
4.22405 0.0714286 0
4.45872 0.0714286 0
4.45872 0 0
4.69339 0 0
4.45872 0.0714286 0
4.69339 0.0714286 0
4.69339 0 0
4.92806 0 0
4.69339 0.0714286 0
4.92806 0.0714286 0
4.92806 0 0
5.16273 0 0
4.92806 0.0714286 0
5.16273 0.0714286 0
5.16273 0 0
5.3974 0 0
5.16273 0.0714286 0
5.3974 0.0714286 0
5.3974 0 0
5.63207 0 0
5.3974 0.0714286 0
5.63207 0.0714286 0
-5.63207 0.0714286 0
-5.3974 0.0714286 0
-5.63207 0.142857 0
-5.3974 0.142857 0
-5.3974 0.0714286 0
-5.16273 0.0714286 0
-5.3974 0.142857 0
-5.16273 0.142857 0
-5.16273 0.0714286 0
-4.92806 0.0714286 0
-5.16273 0.142857 0
-4.92806 0.142857 0
-4.92806 0.0714286 0
-4.69339 0.0714286 0
-4.92806 0.142857 0
-4.69339 0.142857 0
-4.69339 0.0714286 0
-4.45872 0.0714286 0
-4.69339 0.142857 0
-4.45872 0.142857 0
-4.45872 0.0714286 0
-4.22405 0.0714286 0
-4.45872 0.142857 0
-4.22405 0.142857 0
-4.22405 0.0714286 0
-3.98938 0.0714286 0
-4.22405 0.142857 0
-3.98938 0.142857 0
-3.98938 0.0714286 0
-3.75472 0.0714286 0
-3.98938 0.142857 0
-3.75472 0.142857 0
-3.75472 0.0714286 0
-3.52005 0.0714286 0
-3.75472 0.142857 0
-3.52005 0.142857 0
-3.52005 0.0714286 0
-3.28538 0.0714286 0
-3.52005 0.142857 0
-3.28538 0.142857 0
-3.28538 0.0714286 0
-3.05071 0.0714286 0
-3.28538 0.142857 0
-3.05071 0.142857 0
-3.05071 0.0714286 0
-2.81604 0.0714286 0
-3.05071 0.142857 0
-2.81604 0.142857 0
-2.81604 0.0714286 0
-2.58137 0.0714286 0
-2.81604 0.142857 0
-2.58137 0.142857 0
-2.58137 0.0714286 0
-2.3467 0.0714286 0
-2.58137 0.142857 0
-2.3467 0.142857 0
-2.3467 0.0714286 0
-2.11203 0.0714286 0
-2.3467 0.142857 0
-2.11203 0.142857 0
-2.11203 0.0714286 0
-1.87736 0.0714286 0
-2.11203 0.142857 0
-1.87736 0.142857 0
-1.87736 0.0714286 0
-1.64269 0.0714286 0
-1.87736 0.142857 0
-1.64269 0.142857 0
-1.64269 0.0714286 0
-1.40802 0.0714286 0
-1.64269 0.142857 0
-1.40802 0.142857 0
-1.40802 0.0714286 0
-1.17335 0.0714286 0
-1.40802 0.142857 0
-1.17335 0.142857 0
-1.17335 0.0714286 0
-0.938679 0.0714286 0
-1.17335 0.142857 0
-0.938679 0.142857 0
-0.938679 0.0714286 0
-0.704009 0.0714286 0
-0.938679 0.142857 0
-0.704009 0.142857 0
-0.704009 0.0714286 0
-0.469339 0.0714286 0
-0.704009 0.142857 0
-0.469339 0.142857 0
-0.469339 0.0714286 0
-0.23467 0.0714286 0
-0.469339 0.142857 0
-0.23467 0.142857 0
-0.23467 0.0714286 0
0 0.0714286 0
-0.23467 0.142857 0
0 0.142857 0
0 0.0714286 0
0.23467 0.0714286 0
0 0.142857 0
0.23467 0.142857 0
0.23467 0.0714286 0
0.469339 0.0714286 0
0.23467 0.142857 0
0.469339 0.142857 0
0.469339 0.0714286 0
0.704009 0.0714286 0
0.469339 0.142857 0
0.704009 0.142857 0
0.704009 0.0714286 0
0.938679 0.0714286 0
0.704009 0.142857 0
0.938679 0.142857 0
0.938679 0.0714286 0
1.17335 0.0714286 0
0.938679 0.142857 0
1.17335 0.142857 0
1.17335 0.0714286 0
1.40802 0.0714286 0
1.17335 0.142857 0
1.40802 0.142857 0
1.40802 0.0714286 0
1.64269 0.0714286 0
1.40802 0.142857 0
1.64269 0.142857 0
1.64269 0.0714286 0
1.87736 0.0714286 0
1.64269 0.142857 0
1.87736 0.142857 0
1.87736 0.0714286 0
2.11203 0.0714286 0
1.87736 0.142857 0
2.11203 0.142857 0
2.11203 0.0714286 0
2.3467 0.0714286 0
2.11203 0.142857 0
2.3467 0.142857 0
2.3467 0.0714286 0
2.58137 0.0714286 0
2.3467 0.142857 0
2.58137 0.142857 0
2.58137 0.0714286 0
2.81604 0.0714286 0
2.58137 0.142857 0
2.81604 0.142857 0
2.81604 0.0714286 0
3.05071 0.0714286 0
2.81604 0.142857 0
3.05071 0.142857 0
3.05071 0.0714286 0
3.28538 0.0714286 0
3.05071 0.142857 0
3.28538 0.142857 0
3.28538 0.0714286 0
3.52005 0.0714286 0
3.28538 0.142857 0
3.52005 0.142857 0
3.52005 0.0714286 0
3.75472 0.0714286 0
3.52005 0.142857 0
3.75472 0.142857 0
3.75472 0.0714286 0
3.98938 0.0714286 0
3.75472 0.142857 0
3.98938 0.142857 0
3.98938 0.0714286 0
4.22405 0.0714286 0
3.98938 0.142857 0
4.22405 0.142857 0
4.22405 0.0714286 0
4.45872 0.0714286 0
4.22405 0.142857 0
4.45872 0.142857 0
4.45872 0.0714286 0
4.69339 0.0714286 0
4.45872 0.142857 0
4.69339 0.142857 0
4.69339 0.0714286 0
4.92806 0.0714286 0
4.69339 0.142857 0
4.92806 0.142857 0
4.92806 0.0714286 0
5.16273 0.0714286 0
4.92806 0.142857 0
5.16273 0.142857 0
5.16273 0.0714286 0
5.3974 0.0714286 0
5.16273 0.142857 0
5.3974 0.142857 0
5.3974 0.0714286 0
5.63207 0.0714286 0
5.3974 0.142857 0
5.63207 0.142857 0
-5.63207 0.142857 0
-5.3974 0.142857 0
-5.63207 0.214286 0
-5.3974 0.214286 0
-5.3974 0.142857 0
-5.16273 0.142857 0
-5.3974 0.214286 0
-5.16273 0.214286 0
-5.16273 0.142857 0
-4.92806 0.142857 0
-5.16273 0.214286 0
-4.92806 0.214286 0
-4.92806 0.142857 0
-4.69339 0.142857 0
-4.92806 0.214286 0
-4.69339 0.214286 0
-4.69339 0.142857 0
-4.45872 0.142857 0
-4.69339 0.214286 0
-4.45872 0.214286 0
-4.45872 0.142857 0
-4.22405 0.142857 0
-4.45872 0.214286 0
-4.22405 0.214286 0
-4.22405 0.142857 0
-3.98938 0.142857 0
-4.22405 0.214286 0
-3.98938 0.214286 0
-3.98938 0.142857 0
-3.75472 0.142857 0
-3.98938 0.214286 0
-3.75472 0.214286 0
-3.75472 0.142857 0
-3.52005 0.142857 0
-3.75472 0.214286 0
-3.52005 0.214286 0
-3.52005 0.142857 0
-3.28538 0.142857 0
-3.52005 0.214286 0
-3.28538 0.214286 0
-3.28538 0.142857 0
-3.05071 0.142857 0
-3.28538 0.214286 0
-3.05071 0.214286 0
-3.05071 0.142857 0
-2.81604 0.142857 0
-3.05071 0.214286 0
-2.81604 0.214286 0
-2.81604 0.142857 0
-2.58137 0.142857 0
-2.81604 0.214286 0
-2.58137 0.214286 0
-2.58137 0.142857 0
-2.3467 0.142857 0
-2.58137 0.214286 0
-2.3467 0.214286 0
-2.3467 0.142857 0
-2.11203 0.142857 0
-2.3467 0.214286 0
-2.11203 0.214286 0
-2.11203 0.142857 0
-1.87736 0.142857 0
-2.11203 0.214286 0
-1.87736 0.214286 0
-1.87736 0.142857 0
-1.64269 0.142857 0
-1.87736 0.214286 0
-1.64269 0.214286 0
-1.64269 0.142857 0
-1.40802 0.142857 0
-1.64269 0.214286 0
-1.40802 0.214286 0
-1.40802 0.142857 0
-1.17335 0.142857 0
-1.40802 0.214286 0
-1.17335 0.214286 0
-1.17335 0.142857 0
-0.938679 0.142857 0
-1.17335 0.214286 0
-0.938679 0.214286 0
-0.938679 0.142857 0
-0.704009 0.142857 0
-0.938679 0.214286 0
-0.704009 0.214286 0
-0.704009 0.142857 0
-0.469339 0.142857 0
-0.704009 0.214286 0
-0.469339 0.214286 0
-0.469339 0.142857 0
-0.23467 0.142857 0
-0.469339 0.214286 0
-0.23467 0.214286 0
-0.23467 0.142857 0
0 0.142857 0
-0.23467 0.214286 0
0 0.214286 0
0 0.142857 0
0.23467 0.142857 0
0 0.214286 0
0.23467 0.214286 0
0.23467 0.142857 0
0.469339 0.142857 0
0.23467 0.214286 0
0.469339 0.214286 0
0.469339 0.142857 0
0.704009 0.142857 0
0.469339 0.214286 0
0.704009 0.214286 0
0.704009 0.142857 0
0.938679 0.142857 0
0.704009 0.214286 0
0.938679 0.214286 0
0.938679 0.142857 0
1.17335 0.142857 0
0.938679 0.214286 0
1.17335 0.214286 0
1.17335 0.142857 0
1.40802 0.142857 0
1.17335 0.214286 0
1.40802 0.214286 0
1.40802 0.142857 0
1.64269 0.142857 0
1.40802 0.214286 0
1.64269 0.214286 0
1.64269 0.142857 0
1.87736 0.142857 0
1.64269 0.214286 0
1.87736 0.214286 0
1.87736 0.142857 0
2.11203 0.142857 0
1.87736 0.214286 0
2.11203 0.214286 0
2.11203 0.142857 0
2.3467 0.142857 0
2.11203 0.214286 0
2.3467 0.214286 0
2.3467 0.142857 0
2.58137 0.142857 0
2.3467 0.214286 0
2.58137 0.214286 0
2.58137 0.142857 0
2.81604 0.142857 0
2.58137 0.214286 0
2.81604 0.214286 0
2.81604 0.142857 0
3.05071 0.142857 0
2.81604 0.214286 0
[...]
POINT_DATA 2688
SCALARS x1_displacement double 1
LOOKUP_TABLE default
1.34902e-16 -0.0246595 1.05875e-16 -0.0243164 -0.0246595 -0.0471337 -0.0243164 -0.0465778 -0.0471337 -0.0640086 -0.0465778 -0.063459 -0.0640086 -0.0700272 -0.063459 -0.0696758 -0.0700272 -0.0597739 -0.0696758 -0.0596371 -0.0597739 -0.0344139 -0.0596371 -0.0343508 -0.0344139 -0.00803353 -0.0343508 -0.00805401 -0.00803353 0.00499792 -0.00805401 0.00472182 0.00499792 0.00334076 0.00472182 0.00278392 0.00334076 -0.00719381 0.00278392 -0.00788278 -0.00719381 -0.0206256 -0.00788278 -0.021265 -0.0206256 -0.0329136 -0.021265 -0.0333916 -0.0329136 -0.0418931 -0.0333916 -0.0421817 -0.0418931 -0.0467644 -0.0421817 -0.0468885 -0.0467644 -0.0476335 -0.0468885 -0.0476391 -0.0476335 -0.0451686 -0.0476391 -0.0451028 -0.0451686 -0.0403277 -0.0451028 -0.0402296 -0.0403277 -0.0341243 -0.0402296 -0.034022 -0.0341243 -0.0274417 -0.034022 -0.0273523 -0.0274417 -0.0209168 -0.0273523 -0.020848 -0.0209168 -0.0149038 -0.020848 -0.0148566 -0.0149038 -0.00950011 -0.0148566 -0.00947184 -0.00950011 -0.00460723 -0.00947184 -0.00459428 -0.00460723 0 -0.00459428 0 0 0.00460723 0 0.00459428 0.00460723 0.00950011 0.00459428 0.00947184 0.00950011 0.0149038 0.00947184 0.0148566 0.0149038 0.0209168 0.0148566 0.020848 0.0209168 0.0274417 0.020848 0.0273523 0.0274417 0.0341243 0.0273523 0.034022 0.0341243 0.0403277 0.034022 0.0402296 0.0403277 0.0451686 0.0402296 0.0451028 0.0451686 0.0476335 0.0451028 0.0476391 0.0476335 0.0467644 0.0476391 0.0468885 0.0467644 0.0418931 0.0468885 0.0421817 0.0418931 0.0329136 0.0421817 0.0333916 0.0329136 0.0206256 0.0333916 0.021265 0.0206256 0.00719381 0.021265 0.00788278 0.00719381 -0.00334076 0.00788278 -0.00278392 -0.00334076 -0.00499792 -0.00278392 -0.00472182 -0.00499792 0.00803353 -0.00472182 0.00805401 0.00803353 0.0344139 0.00805401 0.0343508 0.0344139 0.0597739 0.0343508 0.0596371 0.0597739 0.0700272 0.0596371 0.0696758 0.0700272 0.0640086 0.0696758 0.063459 0.0640086 0.0471337 0.063459 0.0465778 0.0471337 0.0246595 0.0465778 0.0243164 0.0246595 1.34902e-16 0.0243164 1.05875e-16 1.05875e-16 -0.0243164 8.06515e-17 -0.0232951 -0.0243164 -0.0465778 -0.0232951 -0.0449057 -0.0465778 -0.063459 -0.0449057 -0.0617859 -0.063459 -0.0696758 -0.0617859 -0.0686129 -0.0696758 -0.0596371 -0.0686129 -0.0592609 -0.0596371 -0.0343508 -0.0592609 -0.0341759 -0.0343508 -0.00805401 -0.0341759 -0.00809843 -0.00805401 0.00472182 -0.00809843 0.00389539 0.00472182 0.00278392 0.00389539 0.00113229 0.00278392 -0.00788278 0.00113229 -0.00987834 -0.00788278 -0.021265 -0.00987834 -0.0230737 -0.021265 -0.0333916 -0.0230737 -0.0347143 -0.0333916 -0.0421817 -0.0347143 -0.0429602 -0.0421817 -0.0468885 -0.0429602 -0.0472065 -0.0468885 -0.0476391 -0.0472065 -0.0476312 -0.0476391 -0.0451028 -0.0476312 -0.0449024 -0.0451028 -0.0402296 -0.0449024 -0.0399454 -0.0402296 -0.034022 -0.0399454 -0.0337313 -0.034022 -0.0273523 -0.0337313 -0.0271013 -0.0273523 -0.020848 -0.0271013 -0.0206569 -0.020848 -0.0148566 -0.0206569 -0.0147269 -0.0148566 -0.00947184 -0.0147269 -0.009395 -0.00947184 -0.00459428 -0.009395 -0.00455938 -0.00459428 0 -0.00455938 0 0 0.00459428 0 0.00455938 0.00459428 0.00947184 0.00455938 0.009395 0.00947184 0.0148566 0.009395 0.0147269 0.0148566 0.020848 0.0147269 0.0206569 0.020848 0.0273523 0.0206569 0.0271013 0.0273523 0.034022 0.0271013 0.0337313 0.034022 0.0402296 0.0337313 0.0399454 0.0402296 0.0451028 0.0399454 0.0449024 0.0451028 0.0476391 0.0449024 0.0476312 0.0476391 0.0468885 0.0476312 0.0472065 0.0468885 0.0421817 0.0472065 0.0429602 0.0421817 0.0333916 0.0429602 0.0347143 0.0333916 0.021265 0.0347143 0.0230737 0.021265 0.00788278 0.0230737 0.00987834 0.00788278 -0.00278392 0.00987834 -0.00113229 -0.00278392 -0.00472182 -0.00113229 -0.00389539 -0.00472182 0.00805401 -0.00389539 0.00809843 0.00805401 0.0343508 0.00809843 0.0341759 0.0343508 0.0596371 0.0341759 0.0592609 0.0596371 0.0696758 0.0592609 0.0686129 0.0696758 0.063459 0.0686129 0.0617859 0.063459 0.0465778 0.0617859 0.0449057 0.0465778 0.0243164 0.0449057 0.0232951 0.0243164 1.05875e-16 0.0232951 8.06515e-17 8.06515e-17 -0.0232951 7.40263e-17 -0.0216196 -0.0232951 -0.0449057 -0.0216196 -0.0421361 -0.0449057 -0.0617859 -0.0421361 -0.0589862 -0.0617859 -0.0686129 -0.0589862 -0.0668434 -0.0686129 -0.0592609 -0.0668434 -0.0586846 -0.0592609 -0.0341759 -0.0586846 -0.0339051 -0.0341759 -0.00809843 -0.0339051 -0.00814994 -0.00809843 0.00389539 -0.00814994 0.00252313 0.00389539 0.00113229 0.00252313 -0.00158358 0.00113229 -0.00987834 -0.00158358 -0.0130882 -0.00987834 -0.0230737 -0.0130882 -0.0259179 -0.0230737 -0.0347143 -0.0259179 -0.0367511 -0.0347143 -0.0429602 -0.0367511 -0.0441319 -0.0429602 -0.0472065 -0.0441319 -0.0476633 -0.0472065 -0.0476312 -0.0476633 -0.0475899 -0.0476312 -0.0449024 -0.0475899 -0.0445712 -0.0449024 -0.0399454 -0.0445712 -0.0394923 -0.0399454 -0.0337313 -0.0394923 -0.0332745 -0.0337313 -0.0271013 -0.0332745 -0.0267108 -0.0271013 -0.0206569 -0.0267108 -0.0203623 -0.0206569 -0.0147269 -0.0203623 -0.014529 -0.0147269 -0.009395 -0.014529 -0.00927886 -0.009395 -0.00455938 -0.00927886 -0.00450708 -0.00455938 0 -0.00450708 0 0 0.00455938 0 0.00450708 0.00455938 0.009395 0.00450708 0.00927886 0.009395 0.0147269 0.00927886 0.014529 0.0147269 0.0206569 0.014529 0.0203623 0.0206569 0.0271013 0.0203623 0.0267108 0.0271013 0.0337313 0.0267108 0.0332745 0.0337313 0.0399454 0.0332745 0.0394923 0.0399454 0.0449024 0.0394923 0.0445712 0.0449024 0.0476312 0.0445712 0.0475899 0.0476312 0.0472065 0.0475899 0.0476633 0.0472065 0.0429602 0.0476633 0.0441319 0.0429602 0.0347143 0.0441319 0.0367511 0.0347143 0.0230737 0.0367511 0.0259179 0.0230737 0.00987834 0.0259179 0.0130882 0.00987834 -0.00113229 0.0130882 0.00158358 -0.00113229 -0.00389539 0.00158358 -0.00252313 -0.00389539 0.00809843 -0.00252313 0.00814994 0.00809843 0.0341759 0.00814994 0.0339051 0.0341759 0.0592609 0.0339051 0.0586846 0.0592609 0.0686129 0.0586846 0.0668434 0.0686129 0.0617859 0.0668434 0.0589862 0.0617859 0.0449057 0.0589862 0.0421361 0.0449057 0.0232951 0.0421361 0.0216196 0.0232951 8.06515e-17 0.0216196 7.40263e-17 7.40263e-17 -0.0216196 6.73247e-17 -0.0192828 -0.0216196 -0.0421361 -0.0192828 -0.0382105 -0.0421361 -0.0589862 -0.0382105 -0.0549285 -0.0589862 -0.0668434 -0.0549285 -0.0642345 -0.0668434 -0.0586846 -0.0642345 -0.0578709 -0.0586846 -0.0339051 -0.0578709 -0.0335488 -0.0339051 -0.00814994 -0.0335488 -0.00825574 -0.00814994 0.00252313 -0.00825574 0.000487005 0.00252313 -0.00158358 0.000487005 -0.00544572 -0.00158358 -0.0130882 -0.00544572 -0.0174815 -0.0130882 -0.0259179 -0.0174815 -0.0296802 -0.0259179 -0.0367511 -0.0296802 -0.0393629 -0.0367511 -0.0441319 -0.0393629 -0.0455811 -0.0441319 -0.0476633 -0.0455811 -0.0481814 -0.0476633 -0.0475899 -0.0481814 -0.047474 -0.0475899 -0.0445712 -0.047474 -0.0440962 -0.0445712 -0.0394923 -0.0440962 -0.038876 -0.0394923 -0.0332745 -0.038876 -0.0326679 -0.0332745 -0.0267108 -0.0326679 -0.0262014 -0.0267108 -0.0203623 -0.0262014 -0.0199844 -0.0203623 -0.014529 -0.0199844 -0.0142795 -0.014529 -0.00927886 -0.0142795 -0.00913518 -0.00927886 -0.00450708 -0.00913518 -0.00444337 -0.00450708 0 -0.00444337 0 0 0.00450708 0 0.00444337 0.00450708 0.00927886 0.00444337 0.00913518 0.00927886 0.014529 0.00913518 0.0142795 0.014529 0.0203623 0.0142795 0.0199844 0.0203623 0.0267108 0.0199844 0.0262014 0.0267108 0.0332745 0.0262014 0.0326679 0.0332745 0.0394923 0.0326679 0.038876 0.0394923 0.0445712 0.038876 0.0440962 0.0445712 0.0475899 0.0440962 0.047474 0.0475899 0.0476633 0.047474 0.0481814 0.0476633 0.0441319 0.0481814 0.0455811 0.0441319 0.0367511 0.0455811 0.0393629 0.0367511 0.0259179 0.0393629 0.0296802 0.0259179 0.0130882 0.0296802 0.0174815 0.0130882 0.00158358 0.0174815 0.00544572 0.00158358 -0.00252313 0.00544572 -0.000487005 -0.00252313 0.00814994 -0.000487005 0.00825574 0.00814994 0.0339051 0.00825574 0.0335488 0.0339051 0.0586846 0.0335488 0.0578709 0.0586846 0.0668434 0.0578709 0.0642345 0.0668434 0.0589862 0.0642345 0.0549285 0.0589862 0.0421361 0.0549285 0.0382105 0.0421361 0.0216196 0.0382105 0.0192828 0.0216196 7.40263e-17 0.0192828 6.73247e-17 6.73247e-17 -0.0192828 5.88155e-17 -0.0162665 -0.0192828 -0.0382105 -0.0162665 -0.033022 -0.0382105 -0.0549285 -0.033022 -0.0493716 -0.0549285 -0.0642345 -0.0493716 -0.0605181 -0.0642345 -0.0578709 -0.0605181 -0.0567093 -0.0578709 -0.0335488 -0.0567093 -0.0331144 -0.0335488 -0.00825574 -0.0331144 -0.00852692 -0.00825574 0.000487005 -0.00852692 -0.00245516 0.000487005 -0.00544572 -0.00245516 -0.0106361 -0.00544572 -0.0174815 -0.0106361 -0.0230678 -0.0174815 -0.0296802 -0.0230678 -0.034245 -0.0296802 -0.0393629 -0.034245 -0.0423988 -0.0393629 -0.0455811 -0.0423988 -0.0471757 -0.0455811 -0.0481814 -0.0471757 -0.0486663 -0.0481814 -0.047474 -0.0486663 -0.0472268 -0.047474 -0.0440962 -0.0472268 -0.0434521 -0.0440962 -0.038876 -0.0434521 -0.0380942 -0.038876 -0.0326679 -0.0380942 -0.0319239 -0.0326679 -0.0262014 -0.0319239 -0.0255926 -0.0262014 -0.0199844 -0.0255926 -0.0195444 -0.0199844 -0.0142795 -0.0195444 -0.0139974 -0.0142795 -0.00913518 -0.0139974 -0.00897771 -0.00913518 -0.00444337 -0.00897771 -0.00437544 -0.00444337 0 -0.00437544 0 0 0.00444337 0 0.00437544 0.00444337 0.00913518 0.00437544 0.00897771 0.00913518 0.0142795 0.00897771 0.0139974 0.0142795 0.0199844 0.0139974 0.0195444 0.0199844 0.0262014 0.0195444 0.0255926 0.0262014 0.0326679 0.0255926 0.0319239 0.0326679 0.038876 0.0319239 0.0380942 0.038876 0.0440962 0.0380942 0.0434521 0.0440962 0.047474 0.0434521 0.0472268 0.047474 0.0481814 0.0472268 0.0486663 0.0481814 0.0455811 0.0486663 0.0471757 0.0455811 0.0393629 0.0471757 0.0423988 0.0393629 0.0296802 0.0423988 0.034245 0.0296802 0.0174815 0.034245 0.0230678 0.0174815 0.00544572 0.0230678 0.0106361 0.00544572 -0.000487005 0.0106361 0.00245516 -0.000487005 0.00825574 0.00245516 0.00852692 0.00825574 0.0335488 0.00852692 0.0331144 0.0335488 0.0578709 0.0331144 0.0567093 0.0578709 0.0642345 0.0567093 0.0605181 0.0642345 0.0549285 0.0605181 0.0493716 0.0549285 0.0382105 0.0493716 0.033022 0.0382105 0.0192828 0.033022 0.0162665 0.0192828 6.73247e-17 0.0162665 5.88155e-17 5.88155e-17 -0.0162665 5.22594e-17 -0.0125639 -0.0162665 -0.033022 -0.0125639 -0.0264519 -0.033022 -0.0493716 -0.0264519 -0.0419848 -0.0493716 -0.0605181 -0.0419848 -0.0552761 -0.0605181 -0.0567093 -0.0552761 -0.0549993 -0.0567093 -0.0331144 -0.0549993 -0.0326079 -0.0331144 -0.00852692 -0.0326079 -0.00915742 -0.00852692 -0.00245516 -0.00915742 -0.00668845 -0.00245516 -0.0106361 -0.00668845 -0.017423 -0.0106361 -0.0230678 -0.017423 -0.0298674 -0.0230678 -0.034245 -0.0298674 -0.0394801 -0.034245 -0.0423988 -0.0394801 -0.0456906 -0.0423988 -0.0471757 -0.0456906 -0.0487694 -0.0471757 -0.0486663 -0.0487694 -0.0490103 -0.0486663 -0.0472268 -0.0490103 -0.04678 -0.0472268 -0.0434521 -0.04678 -0.0426047 -0.0434521 -0.0380942 -0.0426047 -0.037139 -0.0380942 -0.0319239 -0.037139 -0.0310525 -0.0319239 -0.0255926 -0.0310525 -0.0249046 -0.0255926 -0.0195444 -0.0249046 -0.0190655 -0.0195444 -0.0139974 -0.0190655 -0.0137037 -0.0139974 -0.00897771 -0.0137037 -0.00882202 -0.00897771 -0.00437544 -0.00882202 -0.00431149 -0.00437544 0 -0.00431149 0 0 0.00437544 0 0.00431149 0.00437544 0.00897771 0.00431149 0.00882202 0.00897771 0.0139974 0.00882202 0.0137037 0.0139974 0.0195444 0.0137037 0.0190655 0.0195444 0.0255926 0.0190655 0.0249046 0.0255926 0.0319239 0.0249046 0.0310525 0.0319239 0.0380942 0.0310525 0.037139 0.0380942 0.0434521 0.037139 0.0426047 0.0434521 0.0472268 0.0426047 0.04678 0.0472268 0.0486663 0.04678 0.0490103 0.0486663 0.0471757 0.0490103 0.0487694 0.0471757 0.0423988 0.0487694 0.0456906 0.0423988 0.034245 0.0456906 0.0394801 0.034245 0.0230678 0.0394801 0.0298674 0.0230678 0.0106361 0.0298674 0.017423 0.0106361 0.00245516 0.017423 0.00668845 0.00245516 0.00852692 0.00668845 0.00915742 0.00852692 0.0331144 0.00915742 0.0326079 0.0331144 0.0567093 0.0326079 0.0549993 0.0567093 0.0605181 0.0549993 0.0552761 0.0605181 0.0493716 0.0552761 0.0419848 0.0493716 0.033022 0.0419848 0.0264519 0.033022 0.0162665 0.0264519 0.0125639 0.0162665 5.88155e-17 0.0125639 5.22594e-17 5.22594e-17 -0.0125639 4.92449e-17 -0.00820262 -0.0125639 -0.0264519 -0.00820262 -0.0184155 -0.0264519 -0.0419848 -0.0184155 -0.0323764 -0.0419848 -0.0552761 -0.0323764 -0.0479074 -0.0552761 -0.0549993 -0.0479074 -0.0524093 -0.0549993 -0.0326079 -0.0524093 -0.0320351 -0.0326079 -0.00915742 -0.0320351 -0.0104673 -0.00915742 -0.00668845 -0.0104673 -0.0127781 -0.00668845 -0.017423 -0.0127781 -0.0261403 -0.017423 -0.0298674 -0.0261403 -0.0378727 -0.0298674 -0.0394801 -0.0378727 -0.0452174 -0.0394801 -0.0456906 -0.0452174 -0.049051 -0.0456906 -0.0487694 -0.049051 -0.0502039 -0.0487694 -0.0490103 -0.0502039 -0.0490956 -0.0490103 -0.04678 -0.0490956 -0.0460572 -0.04678 -0.0426047 -0.0460572 -0.0415142 -0.0426047 -0.037139 -0.0415142 -0.0359997 -0.037139 -0.0310525 -0.0359997 -0.0300633 -0.0310525 -0.0249046 -0.0300633 -0.0241585 -0.0249046 -0.0190655 -0.0241585 -0.0185728 -0.0190655 -0.0137037 -0.0185728 -0.0134215 -0.0137037 -0.00882202 -0.0134215 -0.00868539 -0.00882202 -0.00431149 -0.00868539 -0.00426064 -0.00431149 0 -0.00426064 0 0 0.00431149 0 0.00426064 0.00431149 0.00882202 0.00426064 0.00868539 0.00882202 0.0137037 0.00868539 0.0134215 0.0137037 0.0190655 0.0134215 0.0185728 0.0190655 0.0249046 0.0185728 0.0241585 0.0249046 0.0310525 0.0241585 0.0300633 0.0310525 0.037139 0.0300633 0.0359997 0.037139 0.0426047 0.0359997 0.0415142 0.0426047 0.04678 0.0415142 0.0460572 0.04678 0.0490103 0.0460572 0.0490956 0.0490103 0.0487694 0.0490956 0.0502039 0.0487694 0.0456906 0.0502039 0.049051 0.0456906 0.0394801 0.049051 0.0452174 0.0394801 0.0298674 0.0452174 0.0378727 0.0298674 0.017423 0.0378727 0.0261403 0.017423 0.00668845 0.0261403 0.0127781 0.00668845 0.00915742 0.0127781 0.0104673 0.00915742 0.0326079 0.0104673 0.0320351 0.0326079 0.0549993 0.0320351 0.0524093 0.0549993 0.0552761 0.0524093 0.0479074 0.0552761 0.0419848 0.0479074 0.0323764 0.0419848 0.0264519 0.0323764 0.0184155 0.0264519 0.0125639 0.0184155 0.00820262 0.0125639 5.22594e-17 0.00820262 4.92449e-17 4.92449e-17 -0.00820262 4.60821e-17 -0.0032625 -0.00820262 -0.0184155 -0.0032625 -0.00892129 -0.0184155 -0.0323764 -0.00892129 -0.0201486 -0.0323764 -0.0479074 -0.0201486 -0.0375807 -0.0479074 -0.0524093 -0.0375807 -0.0483967 -0.0524093 -0.0320351 -0.0483967 -0.0314033 -0.0320351 -0.0104673 -0.0314033 -0.0129834 -0.0104673 -0.0127781 -0.0129834 -0.0215231 -0.0127781 -0.0261403 -0.0215231 -0.0371414 -0.0261403 -0.0378727 -0.0371414 -0.0469947 -0.0378727 -0.0452174 -0.0469947 -0.0512378 -0.0452174 -0.049051 -0.0512378 -0.0522731 -0.049051 -0.0502039 -0.0522731 -0.0513106 -0.0502039 -0.0490956 -0.0513106 -0.0487968 -0.0490956 -0.0460572 -0.0487968 -0.0449761 -0.0460572 -0.0415142 -0.0449761 -0.0401376 -0.0415142 -0.0359997 -0.0401376 -0.034665 -0.0359997 -0.0300633 -0.034665 -0.0289675 -0.0300633 -0.0241585 -0.0289675 -0.0233783 -0.0241585 -0.0185728 -0.0233783 -0.0180945 -0.0185728 -0.0134215 -0.0180945 -0.0131766 -0.0134215 -0.00868539 -0.0131766 -0.00858679 -0.00868539 -0.00426064 -0.00858679 -0.00423283 -0.00426064 0 -0.00423283 0 0 0.00426064 0 0.00423283 0.00426064 0.00868539 0.00423283 0.00858679 0.00868539 0.0134215 0.00858679 0.0131766 0.0134215 0.0185728 0.0131766 0.0180945 0.0185728 0.0241585 0.0180945 0.0233783 0.0241585 0.0300633 0.0233783 0.0289675 0.0300633 0.0359997 0.0289675 0.034665 0.0359997 0.0415142 0.034665 0.0401376 0.0415142 0.0460572 0.0401376 0.0449761 0.0460572 0.0490956 0.0449761 0.0487968 0.0490956 0.0502039 0.0487968 0.0513106 0.0502039 0.049051 0.0513106 0.0522731 0.049051 0.0452174 0.0522731 0.0512378 0.0452174 0.0378727 0.0512378 0.0469947 0.0378727 0.0261403 0.0469947 0.0371414 0.0261403 0.0127781 0.0371414 0.0215231 0.0127781 0.0104673 0.0215231 0.0129834 0.0104673 0.0320351 0.0129834 0.0314033 0.0320351 0.0524093 0.0314033 0.0483967 0.0524093 0.0479074 0.0483967 0.0375807 0.0479074 0.0323764 0.0375807 0.0201486 0.0323764 0.0184155 0.0201486 0.00892129 0.0184155 0.00820262 0.00892129 0.0032625 0.00820262 4.92449e-17 0.0032625 4.60821e-17 4.60821e-17 -0.0032625 3.88426e-17 0.00212316 -0.0032625 -0.00892129 0.00212316 0.00186384 -0.00892129 -0.0201486 0.00186384 -0.00500609 -0.0201486 -0.0375807 -0.00500609 -0.0231787 -0.0375807 -0.0483967 -0.0231787 -0.0420617 -0.0483967 -0.0314033 -0.0420617 -0.0307216 -0.0314033 -0.0129834 -0.0307216 -0.0175876 -0.0129834 -0.0215231 -0.0175876 -0.0340217 -0.0215231 -0.0371414 -0.0340217 -0.0506998 -0.0371414 -0.0469947 -0.0506998 -0.057 -0.0469947 -0.0512378 -0.057 -0.0572684 -0.0512378 -0.0522731 -0.0572684 -0.0551353 -0.0522731 -0.0513106 -0.0551353 -0.0519123 -0.0513106 -0.0487968 -0.0519123 -0.0479826 -0.0487968 -0.0449761 -0.0479826 -0.0434515 -0.0449761 -0.0401376 -0.0434515 -0.038431 -0.0401376 -0.034665 -0.038431 -0.0331253 -0.034665 -0.0289675 -0.0331253 -0.0277796 -0.0289675 -0.0233783 -0.0277796 -0.0225919 -0.0233783 -0.0180945 -0.0225919 -0.0176621 -0.0180945 -0.0131766 -0.0176621 -0.0129972 -0.0131766 -0.00858679 -0.0129972 -0.00854686 -0.00858679 -0.00423283 -0.00854686 -0.00423883 -0.00423283 0 -0.00423883 0 0 0.00423283 0 0.00423883 0.00423283 0.00858679 0.00423883 0.00854686 0.00858679 0.0131766 0.00854686 0.0129972 0.0131766 0.0180945 0.0129972 0.0176621 0.0180945 0.0233783 0.0176621 0.0225919 0.0233783 0.0289675 0.0225919 0.0277796 0.0289675 0.034665 0.0277796 0.0331253 0.034665 0.0401376 0.0331253 0.038431 0.0401376 0.0449761 0.038431 0.0434515 0.0449761 0.0487968 0.0434515 0.0479826 0.0487968 0.0513106 0.0479826 0.0519123 0.0513106 0.0522731 0.0519123 0.0551353 0.0522731 0.0512378 0.0551353 0.0572684 0.0512378 0.0469947 0.0572684 0.057 0.0469947 0.0371414 0.057 0.0506998 0.0371414 0.0215231 0.0506998 0.0340217 0.0215231 0.0129834 0.0340217 0.0175876 0.0129834 0.0314033 0.0175876 0.0307216 0.0314033 0.0483967 0.0307216 0.0420617 0.0483967 0.0375807 0.0420617 0.0231787 0.0375807 0.0201486 0.0231787 0.00500609 0.0201486 0.00892129 0.00500609 -0.00186384 0.00892129 0.0032625 -0.00186384 -0.00212316 0.0032625 4.60821e-17 -0.00212316 3.88426e-17 3.88426e-17 0.00212316 3.82123e-17 0.00779197 0.00212316 0.00186384 0.00779197 0.0135689 0.00186384 -0.00500609 0.0135689 0.0130307 -0.00500609 -0.0231787 0.0130307 -0.00327069 -0.0231787 -0.0420617 -0.00327069 -0.0318698 -0.0420617 -0.0307216 -0.0318698 -0.0300014 -0.0307216 -0.0175876 -0.0300014 -0.0257956 -0.0175876 -0.0340217 -0.0257956 -0.0517153 -0.0340217 -0.0506998 -0.0517153 -0.0668012 -0.0506998 -0.057 -0.0668012 -0.0674616 -0.057 -0.0572684 -0.0674616 -0.0630048 -0.0572684 -0.0551353 -0.0630048 -0.0574068 -0.0551353 -0.0519123 -0.0574068 -0.0518246 -0.0519123 -0.0479826 -0.0518246 -0.046518 -0.0479826 -0.0434515 -0.046518 -0.0413959 -0.0434515 -0.038431 -0.0413959 -0.0363513 -0.038431 -0.0331253 -0.0363513 -0.0313744 -0.0331253 -0.0277796 -0.0313744 -0.0265192 -0.0277796 -0.0225919 -0.0265192 -0.0218323 -0.0225919 -0.0176621 -0.0218323 -0.0173116 -0.0176621 -0.0129972 -0.0173116 -0.0129147 -0.0129972 -0.00854686 -0.0129147 -0.00858794 -0.00854686 -0.00423883 -0.00858794 -0.00429011 -0.00423883 0 -0.00429011 0 0 0.00423883 0 0.00429011 0.00423883 0.00854686 0.00429011 0.00858794 0.00854686 0.0129972 0.00858794 0.0129147 0.0129972 0.0176621 0.0129147 0.0173116 0.0176621 0.0225919 0.0173116 0.0218323 0.0225919 0.0277796 0.0218323 0.0265192 0.0277796 0.0331253 0.0265192 0.0313744 0.0331253 0.038431 0.0313744 0.0363513 0.038431 0.0434515 0.0363513 0.0413959 0.0434515 0.0479826 0.0413959 0.046518 0.0479826 0.0519123 0.046518 0.0518246 0.0519123 0.0551353 0.0518246 0.0574068 0.0551353 0.0572684 0.0574068 0.0630048 0.0572684 0.057 0.0630048 0.0674616 0.057 0.0506998 0.0674616 0.0668012 0.0506998 0.0340217 0.0668012 0.0517153 0.0340217 0.0175876 0.0517153 0.0257956 0.0175876 0.0307216 0.0257956 0.0300014 0.0307216 0.0420617 0.0300014 0.0318698 0.0420617 0.0231787 0.0318698 0.00327069 0.0231787 0.00500609 0.00327069 -0.01