# vtk DataFile Version 3.0
#This file was generated by the deal.II library on 2017/9/27 at 13:19:18
ASCII
DATASET UNSTRUCTURED_GRID

POINTS 2688 double
-5.63207 0 0
-5.3974 0 0
-5.63207 0.0714286 0
-5.3974 0.0714286 0
-5.3974 0 0
-5.16273 0 0
-5.3974 0.0714286 0
-5.16273 0.0714286 0
-5.16273 0 0
-4.92806 0 0
-5.16273 0.0714286 0
-4.92806 0.0714286 0
-4.92806 0 0
-4.69339 0 0
-4.92806 0.0714286 0
-4.69339 0.0714286 0
-4.69339 0 0
-4.45872 0 0
-4.69339 0.0714286 0
-4.45872 0.0714286 0
-4.45872 0 0
-4.22405 0 0
-4.45872 0.0714286 0
-4.22405 0.0714286 0
-4.22405 0 0
-3.98938 0 0
-4.22405 0.0714286 0
-3.98938 0.0714286 0
-3.98938 0 0
-3.75472 0 0
-3.98938 0.0714286 0
-3.75472 0.0714286 0
-3.75472 0 0
-3.52005 0 0
-3.75472 0.0714286 0
-3.52005 0.0714286 0
-3.52005 0 0
-3.28538 0 0
-3.52005 0.0714286 0
-3.28538 0.0714286 0
-3.28538 0 0
-3.05071 0 0
-3.28538 0.0714286 0
-3.05071 0.0714286 0
-3.05071 0 0
-2.81604 0 0
-3.05071 0.0714286 0
-2.81604 0.0714286 0
-2.81604 0 0
-2.58137 0 0
-2.81604 0.0714286 0
-2.58137 0.0714286 0
-2.58137 0 0
-2.3467 0 0
-2.58137 0.0714286 0
-2.3467 0.0714286 0
-2.3467 0 0
-2.11203 0 0
-2.3467 0.0714286 0
-2.11203 0.0714286 0
-2.11203 0 0
-1.87736 0 0
-2.11203 0.0714286 0
-1.87736 0.0714286 0
-1.87736 0 0
-1.64269 0 0
-1.87736 0.0714286 0
-1.64269 0.0714286 0
-1.64269 0 0
-1.40802 0 0
-1.64269 0.0714286 0
-1.40802 0.0714286 0
-1.40802 0 0
-1.17335 0 0
-1.40802 0.0714286 0
-1.17335 0.0714286 0
-1.17335 0 0
-0.938679 0 0
-1.17335 0.0714286 0
-0.938679 0.0714286 0
-0.938679 0 0
-0.704009 0 0
-0.938679 0.0714286 0
-0.704009 0.0714286 0
-0.704009 0 0
-0.469339 0 0
-0.704009 0.0714286 0
-0.469339 0.0714286 0
-0.469339 0 0
-0.23467 0 0
-0.469339 0.0714286 0
-0.23467 0.0714286 0
-0.23467 0 0
0 0 0
-0.23467 0.0714286 0
0 0.0714286 0
0 0 0
0.23467 0 0
0 0.0714286 0
0.23467 0.0714286 0
0.23467 0 0
0.469339 0 0
0.23467 0.0714286 0
0.469339 0.0714286 0
0.469339 0 0
0.704009 0 0
0.469339 0.0714286 0
0.704009 0.0714286 0
0.704009 0 0
0.938679 0 0
0.704009 0.0714286 0
0.938679 0.0714286 0
0.938679 0 0
1.17335 0 0
0.938679 0.0714286 0
1.17335 0.0714286 0
1.17335 0 0
1.40802 0 0
1.17335 0.0714286 0
1.40802 0.0714286 0
1.40802 0 0
1.64269 0 0
1.40802 0.0714286 0
1.64269 0.0714286 0
1.64269 0 0
1.87736 0 0
1.64269 0.0714286 0
1.87736 0.0714286 0
1.87736 0 0
2.11203 0 0
1.87736 0.0714286 0
2.11203 0.0714286 0
2.11203 0 0
2.3467 0 0
2.11203 0.0714286 0
2.3467 0.0714286 0
2.3467 0 0
2.58137 0 0
2.3467 0.0714286 0
2.58137 0.0714286 0
2.58137 0 0
2.81604 0 0
2.58137 0.0714286 0
2.81604 0.0714286 0
2.81604 0 0
3.05071 0 0
2.81604 0.0714286 0
3.05071 0.0714286 0
3.05071 0 0
3.28538 0 0
3.05071 0.0714286 0
3.28538 0.0714286 0
3.28538 0 0
3.52005 0 0
3.28538 0.0714286 0
3.52005 0.0714286 0
3.52005 0 0
3.75472 0 0
3.52005 0.0714286 0
3.75472 0.0714286 0
3.75472 0 0
3.98938 0 0
3.75472 0.0714286 0
3.98938 0.0714286 0
3.98938 0 0
4.22405 0 0
3.98938 0.0714286 0
4.22405 0.0714286 0
4.22405 0 0
4.45872 0 0
4.22405 0.0714286 0
4.45872 0.0714286 0
4.45872 0 0
4.69339 0 0
4.45872 0.0714286 0
4.69339 0.0714286 0
4.69339 0 0
4.92806 0 0
4.69339 0.0714286 0
4.92806 0.0714286 0
4.92806 0 0
5.16273 0 0
4.92806 0.0714286 0
5.16273 0.0714286 0
5.16273 0 0
5.3974 0 0
5.16273 0.0714286 0
5.3974 0.0714286 0
5.3974 0 0
5.63207 0 0
5.3974 0.0714286 0
5.63207 0.0714286 0
-5.63207 0.0714286 0
-5.3974 0.0714286 0
-5.63207 0.142857 0
-5.3974 0.142857 0
-5.3974 0.0714286 0
-5.16273 0.0714286 0
-5.3974 0.142857 0
-5.16273 0.142857 0
-5.16273 0.0714286 0
-4.92806 0.0714286 0
-5.16273 0.142857 0
-4.92806 0.142857 0
-4.92806 0.0714286 0
-4.69339 0.0714286 0
-4.92806 0.142857 0
-4.69339 0.142857 0
-4.69339 0.0714286 0
-4.45872 0.0714286 0
-4.69339 0.142857 0
-4.45872 0.142857 0
-4.45872 0.0714286 0
-4.22405 0.0714286 0
-4.45872 0.142857 0
-4.22405 0.142857 0
-4.22405 0.0714286 0
-3.98938 0.0714286 0
-4.22405 0.142857 0
-3.98938 0.142857 0
-3.98938 0.0714286 0
-3.75472 0.0714286 0
-3.98938 0.142857 0
-3.75472 0.142857 0
-3.75472 0.0714286 0
-3.52005 0.0714286 0
-3.75472 0.142857 0
-3.52005 0.142857 0
-3.52005 0.0714286 0
-3.28538 0.0714286 0
-3.52005 0.142857 0
-3.28538 0.142857 0
-3.28538 0.0714286 0
-3.05071 0.0714286 0
-3.28538 0.142857 0
-3.05071 0.142857 0
-3.05071 0.0714286 0
-2.81604 0.0714286 0
-3.05071 0.142857 0
-2.81604 0.142857 0
-2.81604 0.0714286 0
-2.58137 0.0714286 0
-2.81604 0.142857 0
-2.58137 0.142857 0
-2.58137 0.0714286 0
-2.3467 0.0714286 0
-2.58137 0.142857 0
-2.3467 0.142857 0
-2.3467 0.0714286 0
-2.11203 0.0714286 0
-2.3467 0.142857 0
-2.11203 0.142857 0
-2.11203 0.0714286 0
-1.87736 0.0714286 0
-2.11203 0.142857 0
-1.87736 0.142857 0
-1.87736 0.0714286 0
-1.64269 0.0714286 0
-1.87736 0.142857 0
-1.64269 0.142857 0
-1.64269 0.0714286 0
-1.40802 0.0714286 0
-1.64269 0.142857 0
-1.40802 0.142857 0
-1.40802 0.0714286 0
-1.17335 0.0714286 0
-1.40802 0.142857 0
-1.17335 0.142857 0
-1.17335 0.0714286 0
-0.938679 0.0714286 0
-1.17335 0.142857 0
-0.938679 0.142857 0
-0.938679 0.0714286 0
-0.704009 0.0714286 0
-0.938679 0.142857 0
-0.704009 0.142857 0
-0.704009 0.0714286 0
-0.469339 0.0714286 0
-0.704009 0.142857 0
-0.469339 0.142857 0
-0.469339 0.0714286 0
-0.23467 0.0714286 0
-0.469339 0.142857 0
-0.23467 0.142857 0
-0.23467 0.0714286 0
0 0.0714286 0
-0.23467 0.142857 0
0 0.142857 0
0 0.0714286 0
0.23467 0.0714286 0
0 0.142857 0
0.23467 0.142857 0
0.23467 0.0714286 0
0.469339 0.0714286 0
0.23467 0.142857 0
0.469339 0.142857 0
0.469339 0.0714286 0
0.704009 0.0714286 0
0.469339 0.142857 0
0.704009 0.142857 0
0.704009 0.0714286 0
0.938679 0.0714286 0
0.704009 0.142857 0
0.938679 0.142857 0
0.938679 0.0714286 0
1.17335 0.0714286 0
0.938679 0.142857 0
1.17335 0.142857 0
1.17335 0.0714286 0
1.40802 0.0714286 0
1.17335 0.142857 0
1.40802 0.142857 0
1.40802 0.0714286 0
1.64269 0.0714286 0
1.40802 0.142857 0
1.64269 0.142857 0
1.64269 0.0714286 0
1.87736 0.0714286 0
1.64269 0.142857 0
1.87736 0.142857 0
1.87736 0.0714286 0
2.11203 0.0714286 0
1.87736 0.142857 0
2.11203 0.142857 0
2.11203 0.0714286 0
2.3467 0.0714286 0
2.11203 0.142857 0
2.3467 0.142857 0
2.3467 0.0714286 0
2.58137 0.0714286 0
2.3467 0.142857 0
2.58137 0.142857 0
2.58137 0.0714286 0
2.81604 0.0714286 0
2.58137 0.142857 0
2.81604 0.142857 0
2.81604 0.0714286 0
3.05071 0.0714286 0
2.81604 0.142857 0
3.05071 0.142857 0
3.05071 0.0714286 0
3.28538 0.0714286 0
3.05071 0.142857 0
3.28538 0.142857 0
3.28538 0.0714286 0
3.52005 0.0714286 0
3.28538 0.142857 0
3.52005 0.142857 0
3.52005 0.0714286 0
3.75472 0.0714286 0
3.52005 0.142857 0
3.75472 0.142857 0
3.75472 0.0714286 0
3.98938 0.0714286 0
3.75472 0.142857 0
3.98938 0.142857 0
3.98938 0.0714286 0
4.22405 0.0714286 0
3.98938 0.142857 0
4.22405 0.142857 0
4.22405 0.0714286 0
4.45872 0.0714286 0
4.22405 0.142857 0
4.45872 0.142857 0
4.45872 0.0714286 0
4.69339 0.0714286 0
4.45872 0.142857 0
4.69339 0.142857 0
4.69339 0.0714286 0
4.92806 0.0714286 0
4.69339 0.142857 0
4.92806 0.142857 0
4.92806 0.0714286 0
5.16273 0.0714286 0
4.92806 0.142857 0
5.16273 0.142857 0
5.16273 0.0714286 0
5.3974 0.0714286 0
5.16273 0.142857 0
5.3974 0.142857 0
5.3974 0.0714286 0
5.63207 0.0714286 0
5.3974 0.142857 0
5.63207 0.142857 0
-5.63207 0.142857 0
-5.3974 0.142857 0
-5.63207 0.214286 0
-5.3974 0.214286 0
-5.3974 0.142857 0
-5.16273 0.142857 0
-5.3974 0.214286 0
-5.16273 0.214286 0
-5.16273 0.142857 0
-4.92806 0.142857 0
-5.16273 0.214286 0
-4.92806 0.214286 0
-4.92806 0.142857 0
-4.69339 0.142857 0
-4.92806 0.214286 0
-4.69339 0.214286 0
-4.69339 0.142857 0
-4.45872 0.142857 0
-4.69339 0.214286 0
-4.45872 0.214286 0
-4.45872 0.142857 0
-4.22405 0.142857 0
-4.45872 0.214286 0
-4.22405 0.214286 0
-4.22405 0.142857 0
-3.98938 0.142857 0
-4.22405 0.214286 0
-3.98938 0.214286 0
-3.98938 0.142857 0
-3.75472 0.142857 0
-3.98938 0.214286 0
-3.75472 0.214286 0
-3.75472 0.142857 0
-3.52005 0.142857 0
-3.75472 0.214286 0
-3.52005 0.214286 0
-3.52005 0.142857 0
-3.28538 0.142857 0
-3.52005 0.214286 0
-3.28538 0.214286 0
-3.28538 0.142857 0
-3.05071 0.142857 0
-3.28538 0.214286 0
-3.05071 0.214286 0
-3.05071 0.142857 0
-2.81604 0.142857 0
-3.05071 0.214286 0
-2.81604 0.214286 0
-2.81604 0.142857 0
-2.58137 0.142857 0
-2.81604 0.214286 0
-2.58137 0.214286 0
-2.58137 0.142857 0
-2.3467 0.142857 0
-2.58137 0.214286 0
-2.3467 0.214286 0
-2.3467 0.142857 0
-2.11203 0.142857 0
-2.3467 0.214286 0
-2.11203 0.214286 0
-2.11203 0.142857 0
-1.87736 0.142857 0
-2.11203 0.214286 0
-1.87736 0.214286 0
-1.87736 0.142857 0
-1.64269 0.142857 0
-1.87736 0.214286 0
-1.64269 0.214286 0
-1.64269 0.142857 0
-1.40802 0.142857 0
-1.64269 0.214286 0
-1.40802 0.214286 0
-1.40802 0.142857 0
-1.17335 0.142857 0
-1.40802 0.214286 0
-1.17335 0.214286 0
-1.17335 0.142857 0
-0.938679 0.142857 0
-1.17335 0.214286 0
-0.938679 0.214286 0
-0.938679 0.142857 0
-0.704009 0.142857 0
-0.938679 0.214286 0
-0.704009 0.214286 0
-0.704009 0.142857 0
-0.469339 0.142857 0
-0.704009 0.214286 0
-0.469339 0.214286 0
-0.469339 0.142857 0
-0.23467 0.142857 0
-0.469339 0.214286 0
-0.23467 0.214286 0
-0.23467 0.142857 0
0 0.142857 0
-0.23467 0.214286 0
0 0.214286 0
0 0.142857 0
0.23467 0.142857 0
0 0.214286 0
0.23467 0.214286 0
0.23467 0.142857 0
0.469339 0.142857 0
0.23467 0.214286 0
0.469339 0.214286 0
0.469339 0.142857 0
0.704009 0.142857 0
0.469339 0.214286 0
0.704009 0.214286 0
0.704009 0.142857 0
0.938679 0.142857 0
0.704009 0.214286 0
0.938679 0.214286 0
0.938679 0.142857 0
1.17335 0.142857 0
0.938679 0.214286 0
1.17335 0.214286 0
1.17335 0.142857 0
1.40802 0.142857 0
1.17335 0.214286 0
1.40802 0.214286 0
1.40802 0.142857 0
1.64269 0.142857 0
1.40802 0.214286 0
1.64269 0.214286 0
1.64269 0.142857 0
1.87736 0.142857 0
1.64269 0.214286 0
1.87736 0.214286 0
1.87736 0.142857 0
2.11203 0.142857 0
1.87736 0.214286 0
2.11203 0.214286 0
2.11203 0.142857 0
2.3467 0.142857 0
2.11203 0.214286 0
2.3467 0.214286 0
2.3467 0.142857 0
2.58137 0.142857 0
2.3467 0.214286 0
2.58137 0.214286 0
2.58137 0.142857 0
2.81604 0.142857 0
2.58137 0.214286 0
2.81604 0.214286 0
2.81604 0.142857 0
3.05071 0.142857 0
2.81604 0.214286 0
[...]
POINT_DATA 2688
SCALARS x1_displacement double 1
LOOKUP_TABLE default
1.31971 1.23078 1.31971 1.2315 1.23078 1.1428 1.2315 1.14403 1.1428 1.0589 1.14403 1.06021 1.0589 0.986064 1.06021 0.98701 0.986064 0.93435 0.98701 0.934756 0.93435 0.906424 0.934756 0.906485 0.906424 0.880183 0.906485 0.879887 0.880183 0.832686 0.879887 0.831793 0.832686 0.766125 0.831793 0.764741 0.766125 0.691366 0.764741 0.689878 0.691366 0.616878 0.689878 0.615626 0.616878 0.547281 0.615626 0.546406 0.547281 0.484326 0.546406 0.483813 0.484326 0.42802 0.483813 0.427786 0.42802 0.377438 0.427786 0.37739 0.377438 0.331249 0.37739 0.331307 0.331249 0.288047 0.331307 0.288155 0.288047 0.246582 0.288155 0.2467 0.246582 0.205879 0.2467 0.205985 0.205879 0.165288 0.205985 0.165372 0.165288 0.124451 0.165372 0.12451 0.124451 0.0832462 0.12451 0.0832835 0.0832462 0.041716 0.0832835 0.0417338 0.041716 0 0.0417338 0 0 -0.041716 0 -0.0417338 -0.041716 -0.0832462 -0.0417338 -0.0832835 -0.0832462 -0.124451 -0.0832835 -0.12451 -0.124451 -0.165288 -0.12451 -0.165372 -0.165288 -0.205879 -0.165372 -0.205985 -0.205879 -0.246582 -0.205985 -0.2467 -0.246582 -0.288047 -0.2467 -0.288155 -0.288047 -0.331249 -0.288155 -0.331307 -0.331249 -0.377438 -0.331307 -0.37739 -0.377438 -0.42802 -0.37739 -0.427786 -0.42802 -0.484326 -0.427786 -0.483813 -0.484326 -0.547281 -0.483813 -0.546406 -0.547281 -0.616878 -0.546406 -0.615626 -0.616878 -0.691366 -0.615626 -0.689878 -0.691366 -0.766125 -0.689878 -0.764741 -0.766125 -0.832686 -0.764741 -0.831793 -0.832686 -0.880183 -0.831793 -0.879887 -0.880183 -0.906424 -0.879887 -0.906485 -0.906424 -0.93435 -0.906485 -0.934756 -0.93435 -0.986064 -0.934756 -0.98701 -0.986064 -1.0589 -0.98701 -1.06021 -1.0589 -1.1428 -1.06021 -1.14403 -1.1428 -1.23078 -1.14403 -1.2315 -1.23078 -1.31971 -1.2315 -1.31971 1.31971 1.2315 1.31971 1.23359 1.2315 1.14403 1.23359 1.14762 1.14403 1.06021 1.14762 1.06411 1.06021 0.98701 1.06411 0.989796 0.98701 0.934756 0.989796 0.935861 0.934756 0.906485 0.935861 0.906649 0.906485 0.879887 0.906649 0.879098 0.879887 0.831793 0.879098 0.829196 0.831793 0.764741 0.829196 0.760722 0.764741 0.689878 0.760722 0.685636 0.689878 0.615626 0.685636 0.612122 0.615626 0.546406 0.612122 0.543995 0.546406 0.483813 0.543995 0.482421 0.483813 0.427786 0.482421 0.427166 0.427786 0.37739 0.427166 0.377279 0.37739 0.331307 0.377279 0.331486 0.331307 0.288155 0.331486 0.288463 0.288155 0.2467 0.288463 0.247032 0.2467 0.205985 0.247032 0.206282 0.205985 0.165372 0.206282 0.165606 0.165372 0.12451 0.165606 0.124676 0.12451 0.0832835 0.124676 0.083387 0.0832835 0.0417338 0.083387 0.0417828 0.0417338 0 0.0417828 0 0 -0.0417338 0 -0.0417828 -0.0417338 -0.0832835 -0.0417828 -0.083387 -0.0832835 -0.12451 -0.083387 -0.124676 -0.12451 -0.165372 -0.124676 -0.165606 -0.165372 -0.205985 -0.165606 -0.206282 -0.205985 -0.2467 -0.206282 -0.247032 -0.2467 -0.288155 -0.247032 -0.288463 -0.288155 -0.331307 -0.288463 -0.331486 -0.331307 -0.37739 -0.331486 -0.377279 -0.37739 -0.427786 -0.377279 -0.427166 -0.427786 -0.483813 -0.427166 -0.482421 -0.483813 -0.546406 -0.482421 -0.543995 -0.546406 -0.615626 -0.543995 -0.612122 -0.615626 -0.689878 -0.612122 -0.685636 -0.689878 -0.764741 -0.685636 -0.760722 -0.764741 -0.831793 -0.760722 -0.829196 -0.831793 -0.879887 -0.829196 -0.879098 -0.879887 -0.906485 -0.879098 -0.906649 -0.906485 -0.934756 -0.906649 -0.935861 -0.934756 -0.98701 -0.935861 -0.989796 -0.98701 -1.06021 -0.989796 -1.06411 -1.06021 -1.14403 -1.06411 -1.14762 -1.14403 -1.2315 -1.14762 -1.23359 -1.2315 -1.31971 -1.23359 -1.31971 1.31971 1.23359 1.31971 1.23694 1.23359 1.14762 1.23694 1.15344 1.14762 1.06411 1.15344 1.07052 1.06411 0.989796 1.07052 0.994412 0.989796 0.935861 0.994412 0.937617 0.935861 0.906649 0.937617 0.906899 0.906649 0.879098 0.906899 0.877849 0.879098 0.829196 0.877849 0.824924 0.829196 0.760722 0.824924 0.7542 0.760722 0.685636 0.7542 0.678909 0.685636 0.612122 0.678909 0.606679 0.612122 0.543995 0.606679 0.540309 0.543995 0.482421 0.540309 0.480321 0.482421 0.427166 0.480321 0.426249 0.427166 0.377279 0.426249 0.377136 0.377279 0.331486 0.377136 0.331781 0.331486 0.288463 0.331781 0.28895 0.288463 0.247032 0.28895 0.247552 0.247032 0.206282 0.247552 0.206743 0.206282 0.165606 0.206743 0.165967 0.165606 0.124676 0.165967 0.124932 0.124676 0.083387 0.124932 0.0835454 0.083387 0.0417828 0.0835454 0.0418576 0.0417828 0 0.0418576 0 0 -0.0417828 0 -0.0418576 -0.0417828 -0.083387 -0.0418576 -0.0835454 -0.083387 -0.124676 -0.0835454 -0.124932 -0.124676 -0.165606 -0.124932 -0.165967 -0.165606 -0.206282 -0.165967 -0.206743 -0.206282 -0.247032 -0.206743 -0.247552 -0.247032 -0.288463 -0.247552 -0.28895 -0.288463 -0.331486 -0.28895 -0.331781 -0.331486 -0.377279 -0.331781 -0.377136 -0.377279 -0.427166 -0.377136 -0.426249 -0.427166 -0.482421 -0.426249 -0.480321 -0.482421 -0.543995 -0.480321 -0.540309 -0.543995 -0.612122 -0.540309 -0.606679 -0.612122 -0.685636 -0.606679 -0.678909 -0.685636 -0.760722 -0.678909 -0.7542 -0.760722 -0.829196 -0.7542 -0.824924 -0.829196 -0.879098 -0.824924 -0.877849 -0.879098 -0.906649 -0.877849 -0.906899 -0.906649 -0.935861 -0.906899 -0.937617 -0.935861 -0.989796 -0.937617 -0.994412 -0.989796 -1.06411 -0.994412 -1.07052 -1.06411 -1.14762 -1.07052 -1.15344 -1.14762 -1.23359 -1.15344 -1.23694 -1.23359 -1.31971 -1.23694 -1.31971 1.31971 1.23694 1.31971 1.24145 1.23694 1.15344 1.24145 1.16145 1.15344 1.07052 1.16145 1.07959 1.07052 0.994412 1.07959 1.00111 0.994412 0.937617 1.00111 0.940138 0.937617 0.906899 0.940138 0.907228 0.906899 0.877849 0.907228 0.876027 0.877849 0.824924 0.876027 0.81876 0.824924 0.7542 0.81876 0.745117 0.7542 0.678909 0.745117 0.669884 0.678909 0.606679 0.669884 0.5996 0.606679 0.540309 0.5996 0.535628 0.540309 0.480321 0.535628 0.477711 0.480321 0.426249 0.477711 0.425154 0.426249 0.377136 0.425154 0.377018 0.377136 0.331781 0.377018 0.332207 0.331781 0.28895 0.332207 0.289607 0.28895 0.247552 0.289607 0.248237 0.247552 0.206743 0.248237 0.207342 0.206743 0.165967 0.207342 0.166434 0.165967 0.124932 0.166434 0.125259 0.124932 0.0835454 0.125259 0.0837469 0.0835454 0.0418576 0.0837469 0.0419524 0.0418576 0 0.0419524 0 0 -0.0418576 0 -0.0419524 -0.0418576 -0.0835454 -0.0419524 -0.0837469 -0.0835454 -0.124932 -0.0837469 -0.125259 -0.124932 -0.165967 -0.125259 -0.166434 -0.165967 -0.206743 -0.166434 -0.207342 -0.206743 -0.247552 -0.207342 -0.248237 -0.247552 -0.28895 -0.248237 -0.289607 -0.28895 -0.331781 -0.289607 -0.332207 -0.331781 -0.377136 -0.332207 -0.377018 -0.377136 -0.426249 -0.377018 -0.425154 -0.426249 -0.480321 -0.425154 -0.477711 -0.480321 -0.540309 -0.477711 -0.535628 -0.540309 -0.606679 -0.535628 -0.5996 -0.606679 -0.678909 -0.5996 -0.669884 -0.678909 -0.7542 -0.669884 -0.745117 -0.7542 -0.824924 -0.745117 -0.81876 -0.824924 -0.877849 -0.81876 -0.876027 -0.877849 -0.906899 -0.876027 -0.907228 -0.906899 -0.937617 -0.907228 -0.940138 -0.937617 -0.994412 -0.940138 -1.00111 -0.994412 -1.07052 -1.00111 -1.07959 -1.07052 -1.15344 -1.07959 -1.16145 -1.15344 -1.23694 -1.16145 -1.24145 -1.23694 -1.31971 -1.24145 -1.31971 1.31971 1.24145 1.31971 1.24704 1.24145 1.16145 1.24704 1.17164 1.16145 1.07959 1.17164 1.09163 1.07959 1.00111 1.09163 1.01042 1.00111 0.940138 1.01042 0.94371 0.940138 0.907228 0.94371 0.907632 0.907228 0.876027 0.907632 0.873365 0.876027 0.81876 0.873365 0.810236 0.81876 0.745117 0.810236 0.73326 0.745117 0.669884 0.73326 0.658712 0.669884 0.5996 0.658712 0.591197 0.5996 0.535628 0.591197 0.530246 0.535628 0.477711 0.530246 0.474809 0.477711 0.425154 0.474809 0.424017 0.425154 0.377018 0.424017 0.376998 0.377018 0.332207 0.376998 0.332792 0.332207 0.289607 0.332792 0.290434 0.289607 0.248237 0.290434 0.249073 0.248237 0.207342 0.249073 0.20806 0.207342 0.166434 0.20806 0.166984 0.166434 0.125259 0.166984 0.125639 0.125259 0.0837469 0.125639 0.0839789 0.0837469 0.0419524 0.0839789 0.0420606 0.0419524 0 0.0420606 0 0 -0.0419524 0 -0.0420606 -0.0419524 -0.0837469 -0.0420606 -0.0839789 -0.0837469 -0.125259 -0.0839789 -0.125639 -0.125259 -0.166434 -0.125639 -0.166984 -0.166434 -0.207342 -0.166984 -0.20806 -0.207342 -0.248237 -0.20806 -0.249073 -0.248237 -0.289607 -0.249073 -0.290434 -0.289607 -0.332207 -0.290434 -0.332792 -0.332207 -0.377018 -0.332792 -0.376998 -0.377018 -0.425154 -0.376998 -0.424017 -0.425154 -0.477711 -0.424017 -0.474809 -0.477711 -0.535628 -0.474809 -0.530246 -0.535628 -0.5996 -0.530246 -0.591197 -0.5996 -0.669884 -0.591197 -0.658712 -0.669884 -0.745117 -0.658712 -0.73326 -0.745117 -0.81876 -0.73326 -0.810236 -0.81876 -0.876027 -0.810236 -0.873365 -0.876027 -0.907228 -0.873365 -0.907632 -0.907228 -0.940138 -0.907632 -0.94371 -0.940138 -1.00111 -0.94371 -1.01042 -1.00111 -1.07959 -1.01042 -1.09163 -1.07959 -1.16145 -1.09163 -1.17164 -1.16145 -1.24145 -1.17164 -1.24704 -1.24145 -1.31971 -1.24704 -1.31971 1.31971 1.24704 1.31971 1.25357 1.24704 1.17164 1.25357 1.18398 1.17164 1.09163 1.18398 1.10704 1.09163 1.01042 1.10704 1.02314 1.01042 0.94371 1.02314 0.94884 0.94371 0.907632 0.94884 0.908109 0.907632 0.873365 0.908109 0.869384 0.873365 0.810236 0.869384 0.798596 0.810236 0.73326 0.798596 0.718311 0.73326 0.658712 0.718311 0.645575 0.658712 0.591197 0.645575 0.581817 0.591197 0.530246 0.581817 0.524474 0.530246 0.474809 0.524474 0.47184 0.474809 0.424017 0.47184 0.422986 0.424017 0.376998 0.422986 0.37716 0.376998 0.332792 0.37716 0.333575 0.332792 0.290434 0.333575 0.291438 0.290434 0.249073 0.291438 0.250048 0.249073 0.20806 0.250048 0.208877 0.20806 0.166984 0.208877 0.167597 0.166984 0.125639 0.167597 0.126055 0.125639 0.0839789 0.126055 0.0842284 0.0839789 0.0420606 0.0842284 0.0421756 0.0420606 0 0.0421756 0 0 -0.0420606 0 -0.0421756 -0.0420606 -0.0839789 -0.0421756 -0.0842284 -0.0839789 -0.125639 -0.0842284 -0.126055 -0.125639 -0.166984 -0.126055 -0.167597 -0.166984 -0.20806 -0.167597 -0.208877 -0.20806 -0.249073 -0.208877 -0.250048 -0.249073 -0.290434 -0.250048 -0.291438 -0.290434 -0.332792 -0.291438 -0.333575 -0.332792 -0.376998 -0.333575 -0.37716 -0.376998 -0.424017 -0.37716 -0.422986 -0.424017 -0.474809 -0.422986 -0.47184 -0.474809 -0.530246 -0.47184 -0.524474 -0.530246 -0.591197 -0.524474 -0.581817 -0.591197 -0.658712 -0.581817 -0.645575 -0.658712 -0.73326 -0.645575 -0.718311 -0.73326 -0.810236 -0.718311 -0.798596 -0.810236 -0.873365 -0.798596 -0.869384 -0.873365 -0.907632 -0.869384 -0.908109 -0.907632 -0.94371 -0.908109 -0.94884 -0.94371 -1.01042 -0.94884 -1.02314 -1.01042 -1.09163 -1.02314 -1.10704 -1.09163 -1.17164 -1.10704 -1.18398 -1.17164 -1.24704 -1.18398 -1.25357 -1.24704 -1.31971 -1.25357 -1.31971 1.31971 1.25357 1.31971 1.26087 1.25357 1.18398 1.26087 1.19828 1.18398 1.10704 1.19828 1.1262 1.10704 1.02314 1.1262 1.04042 1.02314 0.94884 1.04042 0.956366 0.94884 0.908109 0.956366 0.908663 0.908109 0.869384 0.908663 0.863284 0.869384 0.798596 0.863284 0.78274 0.798596 0.718311 0.78274 0.699938 0.718311 0.645575 0.699938 0.630755 0.645575 0.581817 0.630755 0.571852 0.581817 0.524474 0.571852 0.518632 0.524474 0.47184 0.518632 0.469037 0.47184 0.422986 0.469037 0.422214 0.422986 0.37716 0.422214 0.377593 0.37716 0.333575 0.377593 0.334597 0.333575 0.291438 0.334597 0.292628 0.291438 0.250048 0.292628 0.251152 0.250048 0.208877 0.251152 0.209773 0.208877 0.167597 0.209773 0.168251 0.167597 0.126055 0.168251 0.126488 0.126055 0.0842284 0.126488 0.084482 0.0842284 0.0421756 0.084482 0.0422906 0.0421756 0 0.0422906 0 0 -0.0421756 0 -0.0422906 -0.0421756 -0.0842284 -0.0422906 -0.084482 -0.0842284 -0.126055 -0.084482 -0.126488 -0.126055 -0.167597 -0.126488 -0.168251 -0.167597 -0.208877 -0.168251 -0.209773 -0.208877 -0.250048 -0.209773 -0.251152 -0.250048 -0.291438 -0.251152 -0.292628 -0.291438 -0.333575 -0.292628 -0.334597 -0.333575 -0.37716 -0.334597 -0.377593 -0.37716 -0.422986 -0.377593 -0.422214 -0.422986 -0.47184 -0.422214 -0.469037 -0.47184 -0.524474 -0.469037 -0.518632 -0.524474 -0.581817 -0.518632 -0.571852 -0.581817 -0.645575 -0.571852 -0.630755 -0.645575 -0.718311 -0.630755 -0.699938 -0.718311 -0.798596 -0.699938 -0.78274 -0.798596 -0.869384 -0.78274 -0.863284 -0.869384 -0.908109 -0.863284 -0.908663 -0.908109 -0.94884 -0.908663 -0.956366 -0.94884 -1.02314 -0.956366 -1.04042 -1.02314 -1.10704 -1.04042 -1.1262 -1.10704 -1.18398 -1.1262 -1.19828 -1.18398 -1.25357 -1.19828 -1.26087 -1.25357 -1.31971 -1.26087 -1.31971 1.31971 1.26087 1.31971 1.26868 1.26087 1.19828 1.26868 1.21417 1.19828 1.1262 1.21417 1.1493 1.1262 1.04042 1.1493 1.06378 1.04042 0.956366 1.06378 0.967661 0.956366 0.908663 0.967661 0.9093 0.908663 0.863284 0.9093 0.853729 0.863284 0.78274 0.853729 0.761148 0.78274 0.699938 0.761148 0.677967 0.699938 0.630755 0.677967 0.614723 0.630755 0.571852 0.614723 0.56174 0.571852 0.518632 0.56174 0.513044 0.518632 0.469037 0.513044 0.466632 0.469037 0.422214 0.466632 0.421855 0.422214 0.377593 0.421855 0.378388 0.377593 0.334597 0.378388 0.3359 0.334597 0.292628 0.3359 0.294013 0.292628 0.251152 0.294013 0.252375 0.251152 0.209773 0.252375 0.210727 0.209773 0.168251 0.210727 0.168924 0.168251 0.126488 0.168924 0.126918 0.126488 0.084482 0.126918 0.0847258 0.084482 0.0422906 0.0847258 0.0423982 0.0422906 0 0.0423982 0 0 -0.0422906 0 -0.0423982 -0.0422906 -0.084482 -0.0423982 -0.0847258 -0.084482 -0.126488 -0.0847258 -0.126918 -0.126488 -0.168251 -0.126918 -0.168924 -0.168251 -0.209773 -0.168924 -0.210727 -0.209773 -0.251152 -0.210727 -0.252375 -0.251152 -0.292628 -0.252375 -0.294013 -0.292628 -0.334597 -0.294013 -0.3359 -0.334597 -0.377593 -0.3359 -0.378388 -0.377593 -0.422214 -0.378388 -0.421855 -0.422214 -0.469037 -0.421855 -0.466632 -0.469037 -0.518632 -0.466632 -0.513044 -0.518632 -0.571852 -0.513044 -0.56174 -0.571852 -0.630755 -0.56174 -0.614723 -0.630755 -0.699938 -0.614723 -0.677967 -0.699938 -0.78274 -0.677967 -0.761148 -0.78274 -0.863284 -0.761148 -0.853729 -0.863284 -0.908663 -0.853729 -0.9093 -0.908663 -0.956366 -0.9093 -0.967661 -0.956366 -1.04042 -0.967661 -1.06378 -1.04042 -1.1262 -1.06378 -1.1493 -1.1262 -1.19828 -1.1493 -1.21417 -1.19828 -1.26087 -1.21417 -1.26868 -1.26087 -1.31971 -1.26868 -1.31971 1.31971 1.26868 1.31971 1.27675 1.26868 1.21417 1.27675 1.23102 1.21417 1.1493 1.23102 1.176 1.1493 1.06378 1.176 1.0951 1.06378 0.967661 1.0951 0.985045 0.967661 0.9093 0.985045 0.910032 0.9093 0.853729 0.910032 0.838419 0.853729 0.761148 0.838419 0.731875 0.761148 0.677967 0.731875 0.652711 0.677967 0.614723 0.652711 0.59817 0.614723 0.56174 0.59817 0.551935 0.56174 0.513044 0.551935 0.508032 0.513044 0.466632 0.508032 0.464855 0.466632 0.421855 0.464855 0.422059 0.421855 0.378388 0.422059 0.379633 0.378388 0.3359 0.379633 0.337525 0.3359 0.294013 0.337525 0.295601 0.294013 0.252375 0.295601 0.253704 0.252375 0.210727 0.253704 0.211718 0.210727 0.168924 0.211718 0.169592 0.168924 0.126918 0.169592 0.127325 0.126918 0.0847258 0.127325 0.0849456 0.0847258 0.0423982 0.0849456 0.0424912 0.0423982 0 0.0424912 0 0 -0.0423982 0 -0.0424912 -0.0423982 -0.0847258 -0.0424912 -0.0849456 -0.0847258 -0.126918 -0.0849456 -0.127325 -0.126918 -0.168924 -0.127325 -0.169592 -0.168924 -0.210727 -0.169592 -0.211718 -0.210727 -0.252375 -0.211718 -0.253704 -0.252375 -0.294013 -0.253704 -0.295601 -0.294013 -0.3359 -0.295601 -0.337525 -0.3359 -0.378388 -0.337525 -0.379633 -0.378388 -0.421855 -0.379633 -0.422059 -0.421855 -0.466632 -0.422059 -0.464855 -0.466632 -0.513044 -0.464855 -0.508032 -0.513044 -0.56174 -0.508032 -0.551935 -0.56174 -0.614723 -0.551935 -0.59817 -0.614723 -0.677967 -0.59817 -0.652711 -0.677967 -0.761148 -0.652711 -0.731875 -0.761148 -0.853729 -0.731875 -0.838419 -0.853729 -0.9093 -0.838419 -0.910032 -0.9093 -0.967661 -0.910032 -0.985045 -0.967661 -1.06378 -0.985045 -1.0951 -1.06378 -1.1493 -1.0951 -1.176 -1.1493 -1.21417 -1.176 -1.23102 -1.21417 -1.26868 -1.23102 -1.27675 -1.26868 -1.31971 -1.27675 -1.31971 1.31971 1.27675 1.31971 1.28481 1.27675 1.23102 1.28481 1.2481 1.23102 1.176 1.2481 1.20496 1.176 1.0951 1.20496 1.13621 1.0951 0.985045 1.13621 1.01274 0.985045 0.910032 1.01274 0.910866 0.910032 0.838419 0.910866 0.813088 0.838419 0.731875 0.813088 0.692918 0.731875 0.652711 0.692918 0.625477 0.652711 0.59817 0.625477 0.581901 0.59817 0.551935 0.581901 0.542875 0.551935 0.508032 0.542875 0.503918 0.508032 0.464855 0.503918 0.463925 0.464855 0.422059 0.463925 0.422972 0.422059 0.379633 0.422972 0.381411 0.379633 0.337525 0.381411 0.339508 0.337525 0.295601 0.339508 0.297394 0.295601 0.253704 0.297394 0.255121 0.253704 0.211718 0.255121 0.212721 0.211718 0.169592 0.212721 0.17023 0.169592 0.127325 0.17023 0.127688 0.127325 0.0849456 0.127688 0.0851265 0.0849456 0.0424912 0.0851265 0.0425622 0.0424912 0 0.0425622 0 0 -0.0424912 0 -0.0425622 -0.0424912 -0.0849456 -0.0425622 -0.0851265 -0.0849456 -0.127325 -0.0851265 -0.127688 -0.127325 -0.169592 -0.127688 -0.17023 -0.169592 -0.211718 -0.17023 -0.212721 -0.211718 -0.253704 -0.212721 -0.255121 -0.253704 -0.295601 -0.255121 -0.297394 -0.295601 -0.337525 -0.297394 -0.339508 -0.337525 -0.379633 -0.339508 -0.381411 -0.379633 -0.422059 -0.381411 -0.422972 -0.422059 -0.464855 -0.422972 -0.463925 -0.464855 -0.508032 -0.463925 -0.503918 -0.508032 -0.551935 -0.503918 -0.542875 -0.551935 -0.59817 -0.542875 -0.581901 -0.59817 -0.652711 -0.581901 -0.625477 -0.652711 -0.731875 -0.625477 -0.692918 -0.731875 -0.838419 -0.692918 -0.813088 -0.838419 -0.910032 -0.813088 -0.910866 -0.910032 -0.985045 -0.910866 -1.01274 -0.985045 -1.0951 -1.01274 -1.13621 -1.0951 -1.176 -1.13621 -1.20496 -1.176 -1.23102 -1.20496 -1.2481 -1.23102 -1.27675 -1.2481 -1.28481 -1.27675 -1.31971 -1.28481 -1.31971 1.31971 1.28481 1.31971 1.2926 1.28481 1.2481 1.2926 1.26489 1.2481 1.20496 1.26489 1.23374 1.20496 1.13621 1.23374 1.18656 1.13621 1.01274 1.18656 1.05964 1.01274 0.910866 1.05964 0.911749 0.910866 0.813088 0.911749 0.768541 0.813088 0.692918 0.768541 0.64458 0.692918 0.625477 0.64458 0.598694 0.625477 0.581901 0.598694 0.566531 0.581901 0.542875 0.566531 0.53502 0.542875 0.503918 0.53502 0.501 0.503918 0.463925 0.501 0.464052 0.463925 0.422972 0.464052 0.424729 0.422972 0.381411 0.424729 0.383798 0.381411 0.339508 0.383798 0.341877 0.339508 0.297394 0.341877 0.299388 0.297394 0.255121 0.299388 0.256605 0.255121 0.212721 0.256605 0.213706 0.212721 0.17023 0.213706 0.170811 0.17023 0.127688 0.170811 0.127986 0.127688 0.0851265 0.127986 0.0852538 0.0851265 0.0425622 0.0852538 0.0426037 0.0425622 0 0.0426037 0 0 -0.0425622 0 -0.0426037 -0.0425622 -0.0851265 -0.0426037 -0.0852538 -0.0851265 -0.127688 -0.0852538 -0.127986 -0.127688 -0.17023 -0.127986 -0.170811 -0.17023 -0.212721 -0.170811 -0.213706 -0.212721 -0.255121 -0.213706 -0.256605 -0.255121 -0.297394 -0.256605 -0.299388 -0.297394 -0.339508 -0.299388 -0.341877 -0.339508 -0.381411 -0.341877 -0.383798 -0.381411 -0.422972 -0.383798 -0.424729 -0.422972 -0.463925 -0.424729 -0.464052 -0.463925 -0.503918 -0.464052 -0.501 -0.503918 -0.542875 -0.501 -0.53502 -0.542875 -0.581901 -0.53502 -0.566531 -0.581901 -0.625477 -0.566531 -0.598694 -0.625477 -0.692918 -0.598694 -0.64458 -0.692918 -0.813088 -0.64458 -0.768541 -0.813088 -0.910866 -0.768541 -0.911749 -0.910866 -1.01274 -0.911749 -1.05964 -1.01274 -1.13621 -1.05964 -1.18656 -1.13621 -1.20496 -1.18656 -1.23374 -1.20496 -1.2481 -1.23374 -1.26489 -1.2481 -1.28481 -1.26489 -1.2926 -1.28481 -1.31971 -1.2926 -1.31971 1.31971 1.2926 1.31971 1.29987 1.2926 1.26489 1.29987 1.2807 1.26489 1.23374 1.2807 1.26148 1.23374 1.18656 1.26148 1.23567 1.18656 1.05964 1.23567 1.14503 1.05964 0.911749 1.14503 0.912334 0.911749 0.768541 0.912334 0.684352 0.768541 0.64458 0.684352 0.597421 0.64458 0.598694 0.597421 0.573269 0.598694 0.566531 0.573269 0.552832 0.566531 0.53502 0.552832 0.528758 0.53502 0.501 0.528758 0.499568 0.501 0.464052 0.499568 0.465431 0.464052 0.424729 0.465431 0.427458 0.424729 0.383798 0.427458 0.38686 0.383798 0.341877 0.38686 0.344651 0.341877 0.299388 0.344651 0.30157 0.299388 0.256605 0.30157 0.258125 0.256605 0.213706 0.258125 0.214641 0.213706 0.170811 0.214641 0.171304 0.170811 0.127986 0.171304 0.128194 