# vtk DataFile Version 3.0
#This file was generated by the deal.II library on 2017/9/27 at 13:18:35
ASCII
DATASET UNSTRUCTURED_GRID

POINTS 2688 double
-5.63207 0 0
-5.3974 0 0
-5.63207 0.0714286 0
-5.3974 0.0714286 0
-5.3974 0 0
-5.16273 0 0
-5.3974 0.0714286 0
-5.16273 0.0714286 0
-5.16273 0 0
-4.92806 0 0
-5.16273 0.0714286 0
-4.92806 0.0714286 0
-4.92806 0 0
-4.69339 0 0
-4.92806 0.0714286 0
-4.69339 0.0714286 0
-4.69339 0 0
-4.45872 0 0
-4.69339 0.0714286 0
-4.45872 0.0714286 0
-4.45872 0 0
-4.22405 0 0
-4.45872 0.0714286 0
-4.22405 0.0714286 0
-4.22405 0 0
-3.98938 0 0
-4.22405 0.0714286 0
-3.98938 0.0714286 0
-3.98938 0 0
-3.75472 0 0
-3.98938 0.0714286 0
-3.75472 0.0714286 0
-3.75472 0 0
-3.52005 0 0
-3.75472 0.0714286 0
-3.52005 0.0714286 0
-3.52005 0 0
-3.28538 0 0
-3.52005 0.0714286 0
-3.28538 0.0714286 0
-3.28538 0 0
-3.05071 0 0
-3.28538 0.0714286 0
-3.05071 0.0714286 0
-3.05071 0 0
-2.81604 0 0
-3.05071 0.0714286 0
-2.81604 0.0714286 0
-2.81604 0 0
-2.58137 0 0
-2.81604 0.0714286 0
-2.58137 0.0714286 0
-2.58137 0 0
-2.3467 0 0
-2.58137 0.0714286 0
-2.3467 0.0714286 0
-2.3467 0 0
-2.11203 0 0
-2.3467 0.0714286 0
-2.11203 0.0714286 0
-2.11203 0 0
-1.87736 0 0
-2.11203 0.0714286 0
-1.87736 0.0714286 0
-1.87736 0 0
-1.64269 0 0
-1.87736 0.0714286 0
-1.64269 0.0714286 0
-1.64269 0 0
-1.40802 0 0
-1.64269 0.0714286 0
-1.40802 0.0714286 0
-1.40802 0 0
-1.17335 0 0
-1.40802 0.0714286 0
-1.17335 0.0714286 0
-1.17335 0 0
-0.938679 0 0
-1.17335 0.0714286 0
-0.938679 0.0714286 0
-0.938679 0 0
-0.704009 0 0
-0.938679 0.0714286 0
-0.704009 0.0714286 0
-0.704009 0 0
-0.469339 0 0
-0.704009 0.0714286 0
-0.469339 0.0714286 0
-0.469339 0 0
-0.23467 0 0
-0.469339 0.0714286 0
-0.23467 0.0714286 0
-0.23467 0 0
0 0 0
-0.23467 0.0714286 0
0 0.0714286 0
0 0 0
0.23467 0 0
0 0.0714286 0
0.23467 0.0714286 0
0.23467 0 0
0.469339 0 0
0.23467 0.0714286 0
0.469339 0.0714286 0
0.469339 0 0
0.704009 0 0
0.469339 0.0714286 0
0.704009 0.0714286 0
0.704009 0 0
0.938679 0 0
0.704009 0.0714286 0
0.938679 0.0714286 0
0.938679 0 0
1.17335 0 0
0.938679 0.0714286 0
1.17335 0.0714286 0
1.17335 0 0
1.40802 0 0
1.17335 0.0714286 0
1.40802 0.0714286 0
1.40802 0 0
1.64269 0 0
1.40802 0.0714286 0
1.64269 0.0714286 0
1.64269 0 0
1.87736 0 0
1.64269 0.0714286 0
1.87736 0.0714286 0
1.87736 0 0
2.11203 0 0
1.87736 0.0714286 0
2.11203 0.0714286 0
2.11203 0 0
2.3467 0 0
2.11203 0.0714286 0
2.3467 0.0714286 0
2.3467 0 0
2.58137 0 0
2.3467 0.0714286 0
2.58137 0.0714286 0
2.58137 0 0
2.81604 0 0
2.58137 0.0714286 0
2.81604 0.0714286 0
2.81604 0 0
3.05071 0 0
2.81604 0.0714286 0
3.05071 0.0714286 0
3.05071 0 0
3.28538 0 0
3.05071 0.0714286 0
3.28538 0.0714286 0
3.28538 0 0
3.52005 0 0
3.28538 0.0714286 0
3.52005 0.0714286 0
3.52005 0 0
3.75472 0 0
3.52005 0.0714286 0
3.75472 0.0714286 0
3.75472 0 0
3.98938 0 0
3.75472 0.0714286 0
3.98938 0.0714286 0
3.98938 0 0
4.22405 0 0
3.98938 0.0714286 0
4.22405 0.0714286 0
4.22405 0 0
4.45872 0 0
4.22405 0.0714286 0
4.45872 0.0714286 0
4.45872 0 0
4.69339 0 0
4.45872 0.0714286 0
4.69339 0.0714286 0
4.69339 0 0
4.92806 0 0
4.69339 0.0714286 0
4.92806 0.0714286 0
4.92806 0 0
5.16273 0 0
4.92806 0.0714286 0
5.16273 0.0714286 0
5.16273 0 0
5.3974 0 0
5.16273 0.0714286 0
5.3974 0.0714286 0
5.3974 0 0
5.63207 0 0
5.3974 0.0714286 0
5.63207 0.0714286 0
-5.63207 0.0714286 0
-5.3974 0.0714286 0
-5.63207 0.142857 0
-5.3974 0.142857 0
-5.3974 0.0714286 0
-5.16273 0.0714286 0
-5.3974 0.142857 0
-5.16273 0.142857 0
-5.16273 0.0714286 0
-4.92806 0.0714286 0
-5.16273 0.142857 0
-4.92806 0.142857 0
-4.92806 0.0714286 0
-4.69339 0.0714286 0
-4.92806 0.142857 0
-4.69339 0.142857 0
-4.69339 0.0714286 0
-4.45872 0.0714286 0
-4.69339 0.142857 0
-4.45872 0.142857 0
-4.45872 0.0714286 0
-4.22405 0.0714286 0
-4.45872 0.142857 0
-4.22405 0.142857 0
-4.22405 0.0714286 0
-3.98938 0.0714286 0
-4.22405 0.142857 0
-3.98938 0.142857 0
-3.98938 0.0714286 0
-3.75472 0.0714286 0
-3.98938 0.142857 0
-3.75472 0.142857 0
-3.75472 0.0714286 0
-3.52005 0.0714286 0
-3.75472 0.142857 0
-3.52005 0.142857 0
-3.52005 0.0714286 0
-3.28538 0.0714286 0
-3.52005 0.142857 0
-3.28538 0.142857 0
-3.28538 0.0714286 0
-3.05071 0.0714286 0
-3.28538 0.142857 0
-3.05071 0.142857 0
-3.05071 0.0714286 0
-2.81604 0.0714286 0
-3.05071 0.142857 0
-2.81604 0.142857 0
-2.81604 0.0714286 0
-2.58137 0.0714286 0
-2.81604 0.142857 0
-2.58137 0.142857 0
-2.58137 0.0714286 0
-2.3467 0.0714286 0
-2.58137 0.142857 0
-2.3467 0.142857 0
-2.3467 0.0714286 0
-2.11203 0.0714286 0
-2.3467 0.142857 0
-2.11203 0.142857 0
-2.11203 0.0714286 0
-1.87736 0.0714286 0
-2.11203 0.142857 0
-1.87736 0.142857 0
-1.87736 0.0714286 0
-1.64269 0.0714286 0
-1.87736 0.142857 0
-1.64269 0.142857 0
-1.64269 0.0714286 0
-1.40802 0.0714286 0
-1.64269 0.142857 0
-1.40802 0.142857 0
-1.40802 0.0714286 0
-1.17335 0.0714286 0
-1.40802 0.142857 0
-1.17335 0.142857 0
-1.17335 0.0714286 0
-0.938679 0.0714286 0
-1.17335 0.142857 0
-0.938679 0.142857 0
-0.938679 0.0714286 0
-0.704009 0.0714286 0
-0.938679 0.142857 0
-0.704009 0.142857 0
-0.704009 0.0714286 0
-0.469339 0.0714286 0
-0.704009 0.142857 0
-0.469339 0.142857 0
-0.469339 0.0714286 0
-0.23467 0.0714286 0
-0.469339 0.142857 0
-0.23467 0.142857 0
-0.23467 0.0714286 0
0 0.0714286 0
-0.23467 0.142857 0
0 0.142857 0
0 0.0714286 0
0.23467 0.0714286 0
0 0.142857 0
0.23467 0.142857 0
0.23467 0.0714286 0
0.469339 0.0714286 0
0.23467 0.142857 0
0.469339 0.142857 0
0.469339 0.0714286 0
0.704009 0.0714286 0
0.469339 0.142857 0
0.704009 0.142857 0
0.704009 0.0714286 0
0.938679 0.0714286 0
0.704009 0.142857 0
0.938679 0.142857 0
0.938679 0.0714286 0
1.17335 0.0714286 0
0.938679 0.142857 0
1.17335 0.142857 0
1.17335 0.0714286 0
1.40802 0.0714286 0
1.17335 0.142857 0
1.40802 0.142857 0
1.40802 0.0714286 0
1.64269 0.0714286 0
1.40802 0.142857 0
1.64269 0.142857 0
1.64269 0.0714286 0
1.87736 0.0714286 0
1.64269 0.142857 0
1.87736 0.142857 0
1.87736 0.0714286 0
2.11203 0.0714286 0
1.87736 0.142857 0
2.11203 0.142857 0
2.11203 0.0714286 0
2.3467 0.0714286 0
2.11203 0.142857 0
2.3467 0.142857 0
2.3467 0.0714286 0
2.58137 0.0714286 0
2.3467 0.142857 0
2.58137 0.142857 0
2.58137 0.0714286 0
2.81604 0.0714286 0
2.58137 0.142857 0
2.81604 0.142857 0
2.81604 0.0714286 0
3.05071 0.0714286 0
2.81604 0.142857 0
3.05071 0.142857 0
3.05071 0.0714286 0
3.28538 0.0714286 0
3.05071 0.142857 0
3.28538 0.142857 0
3.28538 0.0714286 0
3.52005 0.0714286 0
3.28538 0.142857 0
3.52005 0.142857 0
3.52005 0.0714286 0
3.75472 0.0714286 0
3.52005 0.142857 0
3.75472 0.142857 0
3.75472 0.0714286 0
3.98938 0.0714286 0
3.75472 0.142857 0
3.98938 0.142857 0
3.98938 0.0714286 0
4.22405 0.0714286 0
3.98938 0.142857 0
4.22405 0.142857 0
4.22405 0.0714286 0
4.45872 0.0714286 0
4.22405 0.142857 0
4.45872 0.142857 0
4.45872 0.0714286 0
4.69339 0.0714286 0
4.45872 0.142857 0
4.69339 0.142857 0
4.69339 0.0714286 0
4.92806 0.0714286 0
4.69339 0.142857 0
4.92806 0.142857 0
4.92806 0.0714286 0
5.16273 0.0714286 0
4.92806 0.142857 0
5.16273 0.142857 0
5.16273 0.0714286 0
5.3974 0.0714286 0
5.16273 0.142857 0
5.3974 0.142857 0
5.3974 0.0714286 0
5.63207 0.0714286 0
5.3974 0.142857 0
5.63207 0.142857 0
-5.63207 0.142857 0
-5.3974 0.142857 0
-5.63207 0.214286 0
-5.3974 0.214286 0
-5.3974 0.142857 0
-5.16273 0.142857 0
-5.3974 0.214286 0
-5.16273 0.214286 0
-5.16273 0.142857 0
-4.92806 0.142857 0
-5.16273 0.214286 0
-4.92806 0.214286 0
-4.92806 0.142857 0
-4.69339 0.142857 0
-4.92806 0.214286 0
-4.69339 0.214286 0
-4.69339 0.142857 0
-4.45872 0.142857 0
-4.69339 0.214286 0
-4.45872 0.214286 0
-4.45872 0.142857 0
-4.22405 0.142857 0
-4.45872 0.214286 0
-4.22405 0.214286 0
-4.22405 0.142857 0
-3.98938 0.142857 0
-4.22405 0.214286 0
-3.98938 0.214286 0
-3.98938 0.142857 0
-3.75472 0.142857 0
-3.98938 0.214286 0
-3.75472 0.214286 0
-3.75472 0.142857 0
-3.52005 0.142857 0
-3.75472 0.214286 0
-3.52005 0.214286 0
-3.52005 0.142857 0
-3.28538 0.142857 0
-3.52005 0.214286 0
-3.28538 0.214286 0
-3.28538 0.142857 0
-3.05071 0.142857 0
-3.28538 0.214286 0
-3.05071 0.214286 0
-3.05071 0.142857 0
-2.81604 0.142857 0
-3.05071 0.214286 0
-2.81604 0.214286 0
-2.81604 0.142857 0
-2.58137 0.142857 0
-2.81604 0.214286 0
-2.58137 0.214286 0
-2.58137 0.142857 0
-2.3467 0.142857 0
-2.58137 0.214286 0
-2.3467 0.214286 0
-2.3467 0.142857 0
-2.11203 0.142857 0
-2.3467 0.214286 0
-2.11203 0.214286 0
-2.11203 0.142857 0
-1.87736 0.142857 0
-2.11203 0.214286 0
-1.87736 0.214286 0
-1.87736 0.142857 0
-1.64269 0.142857 0
-1.87736 0.214286 0
-1.64269 0.214286 0
-1.64269 0.142857 0
-1.40802 0.142857 0
-1.64269 0.214286 0
-1.40802 0.214286 0
-1.40802 0.142857 0
-1.17335 0.142857 0
-1.40802 0.214286 0
-1.17335 0.214286 0
-1.17335 0.142857 0
-0.938679 0.142857 0
-1.17335 0.214286 0
-0.938679 0.214286 0
-0.938679 0.142857 0
-0.704009 0.142857 0
-0.938679 0.214286 0
-0.704009 0.214286 0
-0.704009 0.142857 0
-0.469339 0.142857 0
-0.704009 0.214286 0
-0.469339 0.214286 0
-0.469339 0.142857 0
-0.23467 0.142857 0
-0.469339 0.214286 0
-0.23467 0.214286 0
-0.23467 0.142857 0
0 0.142857 0
-0.23467 0.214286 0
0 0.214286 0
0 0.142857 0
0.23467 0.142857 0
0 0.214286 0
0.23467 0.214286 0
0.23467 0.142857 0
0.469339 0.142857 0
0.23467 0.214286 0
0.469339 0.214286 0
0.469339 0.142857 0
0.704009 0.142857 0
0.469339 0.214286 0
0.704009 0.214286 0
0.704009 0.142857 0
0.938679 0.142857 0
0.704009 0.214286 0
0.938679 0.214286 0
0.938679 0.142857 0
1.17335 0.142857 0
0.938679 0.214286 0
1.17335 0.214286 0
1.17335 0.142857 0
1.40802 0.142857 0
1.17335 0.214286 0
1.40802 0.214286 0
1.40802 0.142857 0
1.64269 0.142857 0
1.40802 0.214286 0
1.64269 0.214286 0
1.64269 0.142857 0
1.87736 0.142857 0
1.64269 0.214286 0
1.87736 0.214286 0
1.87736 0.142857 0
2.11203 0.142857 0
1.87736 0.214286 0
2.11203 0.214286 0
2.11203 0.142857 0
2.3467 0.142857 0
2.11203 0.214286 0
2.3467 0.214286 0
2.3467 0.142857 0
2.58137 0.142857 0
2.3467 0.214286 0
2.58137 0.214286 0
2.58137 0.142857 0
2.81604 0.142857 0
2.58137 0.214286 0
2.81604 0.214286 0
2.81604 0.142857 0
3.05071 0.142857 0
2.81604 0.214286 0
[...]
POINT_DATA 2688
SCALARS x1_displacement double 1
LOOKUP_TABLE default
1.29806 1.22131 1.29806 1.22172 1.22131 1.14568 1.22172 1.14637 1.14568 1.0739 1.14637 1.07461 1.0739 1.01121 1.07461 1.01169 1.01121 0.963833 1.01169 0.964022 0.963833 0.9316 0.964022 0.931657 0.9316 0.900104 0.931657 0.900023 0.900104 0.854775 0.900023 0.854371 0.854775 0.795476 0.854371 0.794767 0.795476 0.729031 0.794767 0.72823 0.729031 0.661644 0.72823 0.660958 0.661644 0.596973 0.660958 0.596497 0.596973 0.536505 0.596497 0.536237 0.536505 0.480343 0.536237 0.480238 0.480343 0.427861 0.480238 0.427863 0.427861 0.378129 0.427863 0.378188 0.378129 0.330182 0.378188 0.330264 0.330182 0.283185 0.330264 0.283267 0.283185 0.236511 0.283267 0.236582 0.236511 0.189761 0.236582 0.189815 0.189761 0.142734 0.189815 0.142771 0.142734 0.0953834 0.142771 0.0954055 0.0953834 0.0477656 0.0954055 0.0477759 0.0477656 0 0.0477759 0 0 -0.0477656 0 -0.0477759 -0.0477656 -0.0953834 -0.0477759 -0.0954055 -0.0953834 -0.142734 -0.0954055 -0.142771 -0.142734 -0.189761 -0.142771 -0.189815 -0.189761 -0.236511 -0.189815 -0.236582 -0.236511 -0.283185 -0.236582 -0.283267 -0.283185 -0.330182 -0.283267 -0.330264 -0.330182 -0.378129 -0.330264 -0.378188 -0.378129 -0.427861 -0.378188 -0.427863 -0.427861 -0.480343 -0.427863 -0.480238 -0.480343 -0.536505 -0.480238 -0.536237 -0.536505 -0.596973 -0.536237 -0.596497 -0.596973 -0.661644 -0.596497 -0.660958 -0.661644 -0.729031 -0.660958 -0.72823 -0.729031 -0.795476 -0.72823 -0.794767 -0.795476 -0.854775 -0.794767 -0.854371 -0.854775 -0.900104 -0.854371 -0.900023 -0.900104 -0.9316 -0.900023 -0.931657 -0.9316 -0.963833 -0.931657 -0.964022 -0.963833 -1.01121 -0.964022 -1.01169 -1.01121 -1.0739 -1.01169 -1.07461 -1.0739 -1.14568 -1.07461 -1.14637 -1.14568 -1.22131 -1.14637 -1.22172 -1.22131 -1.29806 -1.22172 -1.29806 1.29806 1.22172 1.29806 1.22293 1.22172 1.14637 1.22293 1.1484 1.14637 1.07461 1.1484 1.07673 1.07461 1.01169 1.07673 1.01311 1.01169 0.964022 1.01311 0.964544 0.964022 0.931657 0.964544 0.931814 0.931657 0.900023 0.931814 0.899805 0.900023 0.854371 0.899805 0.853181 0.854371 0.794767 0.853181 0.792702 0.794767 0.72823 0.792702 0.725942 0.72823 0.660958 0.725942 0.659033 0.660958 0.596497 0.659033 0.595183 0.596497 0.536237 0.595183 0.535513 0.536237 0.480238 0.535513 0.479964 0.480238 0.427863 0.479964 0.427881 0.427863 0.378188 0.427881 0.378364 0.378188 0.330264 0.378364 0.3305 0.330264 0.283267 0.3305 0.2835 0.283267 0.236582 0.2835 0.236779 0.236582 0.189815 0.236779 0.189964 0.189815 0.142771 0.189964 0.142872 0.142771 0.0954055 0.142872 0.0954665 0.0954055 0.0477759 0.0954665 0.047804 0.0477759 0 0.047804 0 0 -0.0477759 0 -0.047804 -0.0477759 -0.0954055 -0.047804 -0.0954665 -0.0954055 -0.142771 -0.0954665 -0.142872 -0.142771 -0.189815 -0.142872 -0.189964 -0.189815 -0.236582 -0.189964 -0.236779 -0.236582 -0.283267 -0.236779 -0.2835 -0.283267 -0.330264 -0.2835 -0.3305 -0.330264 -0.378188 -0.3305 -0.378364 -0.378188 -0.427863 -0.378364 -0.427881 -0.427863 -0.480238 -0.427881 -0.479964 -0.480238 -0.536237 -0.479964 -0.535513 -0.536237 -0.596497 -0.535513 -0.595183 -0.596497 -0.660958 -0.595183 -0.659033 -0.660958 -0.72823 -0.659033 -0.725942 -0.72823 -0.794767 -0.725942 -0.792702 -0.794767 -0.854371 -0.792702 -0.853181 -0.854371 -0.900023 -0.853181 -0.899805 -0.900023 -0.931657 -0.899805 -0.931814 -0.931657 -0.964022 -0.931814 -0.964544 -0.964022 -1.01169 -0.964544 -1.01311 -1.01169 -1.07461 -1.01311 -1.07673 -1.07461 -1.14637 -1.07673 -1.1484 -1.14637 -1.22172 -1.1484 -1.22293 -1.22172 -1.29806 -1.22293 -1.29806 1.29806 1.22293 1.29806 1.22485 1.22293 1.1484 1.22485 1.15169 1.1484 1.07673 1.15169 1.08021 1.07673 1.01311 1.08021 1.01545 1.01311 0.964544 1.01545 0.965355 0.964544 0.931814 0.965355 0.932056 0.931814 0.899805 0.932056 0.899474 0.899805 0.853181 0.899474 0.851224 0.853181 0.792702 0.851224 0.789342 0.792702 0.725942 0.789342 0.722301 0.725942 0.659033 0.722301 0.656033 0.659033 0.595183 0.656033 0.593171 0.595183 0.535513 0.593171 0.534424 0.535513 0.479964 0.534424 0.479567 0.479964 0.427881 0.479567 0.427927 0.427881 0.378364 0.427927 0.378648 0.378364 0.3305 0.378648 0.330871 0.3305 0.2835 0.330871 0.283863 0.2835 0.236779 0.283863 0.237084 0.236779 0.189964 0.237084 0.190193 0.189964 0.142872 0.190193 0.143028 0.142872 0.0954665 0.143028 0.0955594 0.0954665 0.047804 0.0955594 0.0478467 0.047804 0 0.0478467 0 0 -0.047804 0 -0.0478467 -0.047804 -0.0954665 -0.0478467 -0.0955594 -0.0954665 -0.142872 -0.0955594 -0.143028 -0.142872 -0.189964 -0.143028 -0.190193 -0.189964 -0.236779 -0.190193 -0.237084 -0.236779 -0.2835 -0.237084 -0.283863 -0.2835 -0.3305 -0.283863 -0.330871 -0.3305 -0.378364 -0.330871 -0.378648 -0.378364 -0.427881 -0.378648 -0.427927 -0.427881 -0.479964 -0.427927 -0.479567 -0.479964 -0.535513 -0.479567 -0.534424 -0.535513 -0.595183 -0.534424 -0.593171 -0.595183 -0.659033 -0.593171 -0.656033 -0.659033 -0.725942 -0.656033 -0.722301 -0.725942 -0.792702 -0.722301 -0.789342 -0.792702 -0.853181 -0.789342 -0.851224 -0.853181 -0.899805 -0.851224 -0.899474 -0.899805 -0.931814 -0.899474 -0.932056 -0.931814 -0.964544 -0.932056 -0.965355 -0.964544 -1.01311 -0.965355 -1.01545 -1.01311 -1.07673 -1.01545 -1.08021 -1.07673 -1.1484 -1.08021 -1.15169 -1.1484 -1.22293 -1.15169 -1.22485 -1.22293 -1.29806 -1.22485 -1.29806 1.29806 1.22485 1.29806 1.22747 1.22485 1.15169 1.22747 1.15622 1.15169 1.08021 1.15622 1.08514 1.08021 1.01545 1.08514 1.01884 1.01545 0.965355 1.01884 0.966496 0.965355 0.932056 0.966496 0.932372 0.932056 0.899474 0.932372 0.898973 0.899474 0.851224 0.898973 0.848375 0.851224 0.789342 0.848375 0.784634 0.789342 0.722301 0.784634 0.717387 0.722301 0.656033 0.717387 0.652115 0.656033 0.593171 0.652115 0.590614 0.593171 0.534424 0.590614 0.53308 0.534424 0.479567 0.53308 0.479111 0.479567 0.427927 0.479111 0.428031 0.427927 0.378648 0.428031 0.379044 0.378648 0.330871 0.379044 0.331368 0.330871 0.283863 0.331368 0.284341 0.283863 0.237084 0.284341 0.23748 0.237084 0.190193 0.23748 0.190487 0.190193 0.143028 0.190487 0.143226 0.143028 0.0955594 0.143226 0.0956765 0.0955594 0.0478467 0.0956765 0.0479002 0.0478467 0 0.0479002 0 0 -0.0478467 0 -0.0479002 -0.0478467 -0.0955594 -0.0479002 -0.0956765 -0.0955594 -0.143028 -0.0956765 -0.143226 -0.143028 -0.190193 -0.143226 -0.190487 -0.190193 -0.237084 -0.190487 -0.23748 -0.237084 -0.283863 -0.23748 -0.284341 -0.283863 -0.330871 -0.284341 -0.331368 -0.330871 -0.378648 -0.331368 -0.379044 -0.378648 -0.427927 -0.379044 -0.428031 -0.427927 -0.479567 -0.428031 -0.479111 -0.479567 -0.534424 -0.479111 -0.53308 -0.534424 -0.593171 -0.53308 -0.590614 -0.593171 -0.656033 -0.590614 -0.652115 -0.656033 -0.722301 -0.652115 -0.717387 -0.722301 -0.789342 -0.717387 -0.784634 -0.789342 -0.851224 -0.784634 -0.848375 -0.851224 -0.899474 -0.848375 -0.898973 -0.899474 -0.932056 -0.898973 -0.932372 -0.932056 -0.965355 -0.932372 -0.966496 -0.965355 -1.01545 -0.966496 -1.01884 -1.01545 -1.08021 -1.01884 -1.08514 -1.08021 -1.15169 -1.08514 -1.15622 -1.15169 -1.22485 -1.15622 -1.22747 -1.22485 -1.29806 -1.22747 -1.29806 1.29806 1.22747 1.29806 1.23073 1.22747 1.15622 1.23073 1.16204 1.15622 1.08514 1.16204 1.09172 1.08514 1.01884 1.09172 1.02356 1.01884 0.966496 1.02356 0.968099 0.966496 0.932372 0.968099 0.932754 0.932372 0.898973 0.932754 0.898165 0.898973 0.848375 0.898165 0.844369 0.848375 0.784634 0.844369 0.778425 0.784634 0.717387 0.778425 0.711254 0.717387 0.652115 0.711254 0.647442 0.652115 0.590614 0.647442 0.587678 0.590614 0.53308 0.587678 0.531606 0.53308 0.479111 0.531606 0.478674 0.479111 0.428031 0.478674 0.428231 0.428031 0.379044 0.428231 0.379565 0.379044 0.331368 0.379565 0.331987 0.331368 0.284341 0.331987 0.284921 0.284341 0.23748 0.284921 0.237952 0.23748 0.190487 0.237952 0.190832 0.190487 0.143226 0.190832 0.143453 0.143226 0.0956765 0.143453 0.0958093 0.0956765 0.0479002 0.0958093 0.0479601 0.0479002 0 0.0479601 0 0 -0.0479002 0 -0.0479601 -0.0479002 -0.0956765 -0.0479601 -0.0958093 -0.0956765 -0.143226 -0.0958093 -0.143453 -0.143226 -0.190487 -0.143453 -0.190832 -0.190487 -0.23748 -0.190832 -0.237952 -0.23748 -0.284341 -0.237952 -0.284921 -0.284341 -0.331368 -0.284921 -0.331987 -0.331368 -0.379044 -0.331987 -0.379565 -0.379044 -0.428031 -0.379565 -0.428231 -0.428031 -0.479111 -0.428231 -0.478674 -0.479111 -0.53308 -0.478674 -0.531606 -0.53308 -0.590614 -0.531606 -0.587678 -0.590614 -0.652115 -0.587678 -0.647442 -0.652115 -0.717387 -0.647442 -0.711254 -0.717387 -0.784634 -0.711254 -0.778425 -0.784634 -0.848375 -0.778425 -0.844369 -0.848375 -0.898973 -0.844369 -0.898165 -0.898973 -0.932372 -0.898165 -0.932754 -0.932372 -0.966496 -0.932754 -0.968099 -0.966496 -1.01884 -0.968099 -1.02356 -1.01884 -1.08514 -1.02356 -1.09172 -1.08514 -1.15622 -1.09172 -1.16204 -1.15622 -1.22747 -1.16204 -1.23073 -1.22747 -1.29806 -1.23073 -1.29806 1.29806 1.23073 1.29806 1.23459 1.23073 1.16204 1.23459 1.16916 1.16204 1.09172 1.16916 1.10022 1.09172 1.02356 1.10022 1.03006 1.02356 0.968099 1.03006 0.970408 0.968099 0.932754 0.970408 0.933194 0.932754 0.898165 0.933194 0.896807 0.898165 0.844369 0.896807 0.838776 0.844369 0.778425 0.838776 0.770486 0.778425 0.711254 0.770486 0.70396 0.711254 0.647442 0.70396 0.642196 0.647442 0.587678 0.642196 0.584544 0.587678 0.531606 0.584544 0.530136 0.531606 0.478674 0.530136 0.478343 0.478674 0.428231 0.478343 0.428578 0.428231 0.379565 0.428578 0.380232 0.379565 0.331987 0.380232 0.332729 0.331987 0.284921 0.332729 0.285592 0.284921 0.237952 0.285592 0.238484 0.237952 0.190832 0.238484 0.191212 0.190832 0.143453 0.191212 0.143698 0.143453 0.0958093 0.143698 0.0959487 0.0958093 0.0479601 0.0959487 0.0480218 0.0479601 0 0.0480218 0 0 -0.0479601 0 -0.0480218 -0.0479601 -0.0958093 -0.0480218 -0.0959487 -0.0958093 -0.143453 -0.0959487 -0.143698 -0.143453 -0.190832 -0.143698 -0.191212 -0.190832 -0.237952 -0.191212 -0.238484 -0.237952 -0.284921 -0.238484 -0.285592 -0.284921 -0.331987 -0.285592 -0.332729 -0.331987 -0.379565 -0.332729 -0.380232 -0.379565 -0.428231 -0.380232 -0.428578 -0.428231 -0.478674 -0.428578 -0.478343 -0.478674 -0.531606 -0.478343 -0.530136 -0.531606 -0.587678 -0.530136 -0.584544 -0.587678 -0.647442 -0.584544 -0.642196 -0.647442 -0.711254 -0.642196 -0.70396 -0.711254 -0.778425 -0.70396 -0.770486 -0.778425 -0.844369 -0.770486 -0.838776 -0.844369 -0.898165 -0.838776 -0.896807 -0.898165 -0.932754 -0.896807 -0.933194 -0.932754 -0.968099 -0.933194 -0.970408 -0.968099 -1.02356 -0.970408 -1.03006 -1.02356 -1.09172 -1.03006 -1.10022 -1.09172 -1.16204 -1.10022 -1.16916 -1.16204 -1.23073 -1.16916 -1.23459 -1.23073 -1.29806 -1.23459 -1.29806 1.29806 1.23459 1.29806 1.23896 1.23459 1.16916 1.23896 1.17756 1.16916 1.10022 1.17756 1.11095 1.10022 1.03006 1.11095 1.03899 1.03006 0.970408 1.03899 0.973835 0.970408 0.933194 0.973835 0.933682 0.933194 0.896807 0.933682 0.894489 0.896807 0.838776 0.894489 0.830964 0.838776 0.770486 0.830964 0.760544 0.770486 0.70396 0.760544 0.695611 0.70396 0.642196 0.695611 0.636599 0.642196 0.584544 0.636599 0.581404 0.584544 0.530136 0.581404 0.528813 0.530136 0.478343 0.528813 0.478213 0.478343 0.428578 0.478213 0.429121 0.428578 0.380232 0.429121 0.381064 0.380232 0.332729 0.381064 0.333594 0.332729 0.285592 0.333594 0.286343 0.285592 0.238484 0.286343 0.239061 0.238484 0.191212 0.239061 0.19161 0.191212 0.143698 0.19161 0.143946 0.143698 0.0959487 0.143946 0.0960852 0.0959487 0.0480218 0.0960852 0.0480805 0.0480218 0 0.0480805 0 0 -0.0480218 0 -0.0480805 -0.0480218 -0.0959487 -0.0480805 -0.0960852 -0.0959487 -0.143698 -0.0960852 -0.143946 -0.143698 -0.191212 -0.143946 -0.19161 -0.191212 -0.238484 -0.19161 -0.239061 -0.238484 -0.285592 -0.239061 -0.286343 -0.285592 -0.332729 -0.286343 -0.333594 -0.332729 -0.380232 -0.333594 -0.381064 -0.380232 -0.428578 -0.381064 -0.429121 -0.428578 -0.478343 -0.429121 -0.478213 -0.478343 -0.530136 -0.478213 -0.528813 -0.530136 -0.584544 -0.528813 -0.581404 -0.584544 -0.642196 -0.581404 -0.636599 -0.642196 -0.70396 -0.636599 -0.695611 -0.70396 -0.770486 -0.695611 -0.760544 -0.770486 -0.838776 -0.760544 -0.830964 -0.838776 -0.896807 -0.830964 -0.894489 -0.896807 -0.933194 -0.894489 -0.933682 -0.933194 -0.970408 -0.933682 -0.973835 -0.970408 -1.03006 -0.973835 -1.03899 -1.03006 -1.10022 -1.03899 -1.11095 -1.10022 -1.16916 -1.11095 -1.17756 -1.16916 -1.23459 -1.17756 -1.23896 -1.23459 -1.29806 -1.23896 -1.29806 1.29806 1.23896 1.29806 1.24369 1.23896 1.17756 1.24369 1.18708 1.17756 1.11095 1.18708 1.1242 1.11095 1.03899 1.1242 1.05127 1.03899 0.973835 1.05127 0.979073 0.973835 0.933682 0.979073 0.934211 0.933682 0.894489 0.934211 0.890525 0.894489 0.830964 0.890525 0.820037 0.830964 0.760544 0.820037 0.748357 0.760544 0.695611 0.748357 0.686422 0.695611 0.636599 0.686422 0.630912 0.636599 0.581404 0.630912 0.57846 0.581404 0.528813 0.57846 0.527781 0.528813 0.478213 0.527781 0.478377 0.478213 0.429121 0.478377 0.429917 0.429121 0.381064 0.429917 0.382086 0.381064 0.333594 0.382086 0.334583 0.333594 0.286343 0.334583 0.287163 0.286343 0.239061 0.287163 0.239665 0.239061 0.19161 0.239665 0.192009 0.19161 0.143946 0.192009 0.144183 0.143946 0.0960852 0.144183 0.0962087 0.0960852 0.0480805 0.0962087 0.048131 0.0480805 0 0.048131 0 0 -0.0480805 0 -0.048131 -0.0480805 -0.0960852 -0.048131 -0.0962087 -0.0960852 -0.143946 -0.0962087 -0.144183 -0.143946 -0.19161 -0.144183 -0.192009 -0.19161 -0.239061 -0.192009 -0.239665 -0.239061 -0.286343 -0.239665 -0.287163 -0.286343 -0.333594 -0.287163 -0.334583 -0.333594 -0.381064 -0.334583 -0.382086 -0.381064 -0.429121 -0.382086 -0.429917 -0.429121 -0.478213 -0.429917 -0.478377 -0.478213 -0.528813 -0.478377 -0.527781 -0.528813 -0.581404 -0.527781 -0.57846 -0.581404 -0.636599 -0.57846 -0.630912 -0.636599 -0.695611 -0.630912 -0.686422 -0.695611 -0.760544 -0.686422 -0.748357 -0.760544 -0.830964 -0.748357 -0.820037 -0.830964 -0.894489 -0.820037 -0.890525 -0.894489 -0.933682 -0.890525 -0.934211 -0.933682 -0.973835 -0.934211 -0.979073 -0.973835 -1.03899 -0.979073 -1.05127 -1.03899 -1.11095 -1.05127 -1.1242 -1.11095 -1.17756 -1.1242 -1.18708 -1.17756 -1.23896 -1.18708 -1.24369 -1.23896 -1.29806 -1.24369 -1.29806 1.29806 1.24369 1.29806 1.24863 1.24369 1.18708 1.24863 1.19741 1.18708 1.1242 1.19741 1.14004 1.1242 1.05127 1.14004 1.06812 1.05127 0.979073 1.06812 0.987297 0.979073 0.934211 0.987297 0.934769 0.934211 0.890525 0.934769 0.883748 0.890525 0.820037 0.883748 0.804782 0.820037 0.748357 0.804782 0.733855 0.748357 0.686422 0.733855 0.676767 0.686422 0.630912 0.676767 0.625432 0.630912 0.57846 0.625432 0.575917 0.57846 0.527781 0.575917 0.527186 0.527781 0.478377 0.527186 0.47893 0.478377 0.429917 0.47893 0.431016 0.429917 0.382086 0.431016 0.383317 0.382086 0.334583 0.383317 0.335697 0.334583 0.287163 0.335697 0.28804 0.287163 0.239665 0.28804 0.240279 0.239665 0.192009 0.240279 0.192393 0.192009 0.144183 0.192393 0.144394 0.144183 0.0962087 0.144394 0.096309 0.0962087 0.048131 0.096309 0.0481681 0.048131 0 0.0481681 0 0 -0.048131 0 -0.0481681 -0.048131 -0.0962087 -0.0481681 -0.096309 -0.0962087 -0.144183 -0.096309 -0.144394 -0.144183 -0.192009 -0.144394 -0.192393 -0.192009 -0.239665 -0.192393 -0.240279 -0.239665 -0.287163 -0.240279 -0.28804 -0.287163 -0.334583 -0.28804 -0.335697 -0.334583 -0.382086 -0.335697 -0.383317 -0.382086 -0.429917 -0.383317 -0.431016 -0.429917 -0.478377 -0.431016 -0.47893 -0.478377 -0.527781 -0.47893 -0.527186 -0.527781 -0.57846 -0.527186 -0.575917 -0.57846 -0.630912 -0.575917 -0.625432 -0.630912 -0.686422 -0.625432 -0.676767 -0.686422 -0.748357 -0.676767 -0.733855 -0.748357 -0.820037 -0.733855 -0.804782 -0.820037 -0.890525 -0.804782 -0.883748 -0.890525 -0.934211 -0.883748 -0.934769 -0.934211 -0.979073 -0.934769 -0.987297 -0.979073 -1.05127 -0.987297 -1.06812 -1.05127 -1.1242 -1.06812 -1.14004 -1.1242 -1.18708 -1.14004 -1.19741 -1.18708 -1.24369 -1.19741 -1.24863 -1.24369 -1.29806 -1.24863 -1.29806 1.29806 1.24863 1.29806 1.25359 1.24863 1.19741 1.25359 1.20805 1.19741 1.14004 1.20805 1.15807 1.14004 1.06812 1.15807 1.09103 1.06812 0.987297 1.09103 1.00058 0.987297 0.934769 1.00058 0.935341 0.934769 0.883748 0.935341 0.872093 0.883748 0.804782 0.872093 0.78367 0.804782 0.733855 0.78367 0.71742 0.733855 0.676767 0.71742 0.66719 0.676767 0.625432 0.66719 0.620454 0.625432 0.575917 0.620454 0.573981 0.575917 0.527186 0.573981 0.527174 0.527186 0.47893 0.527174 0.479964 0.47893 0.431016 0.479964 0.432468 0.431016 0.383317 0.432468 0.384775 0.383317 0.335697 0.384775 0.336929 0.335697 0.28804 0.336929 0.288956 0.28804 0.240279 0.288956 0.240882 0.240279 0.192393 0.240882 0.192741 0.192393 0.144394 0.192741 0.144564 0.144394 0.096309 0.144564 0.0963755 0.096309 0.0481681 0.0963755 0.0481866 0.0481681 0 0.0481866 0 0 -0.0481681 0 -0.0481866 -0.0481681 -0.096309 -0.0481866 -0.0963755 -0.096309 -0.144394 -0.0963755 -0.144564 -0.144394 -0.192393 -0.144564 -0.192741 -0.192393 -0.240279 -0.192741 -0.240882 -0.240279 -0.28804 -0.240882 -0.288956 -0.28804 -0.335697 -0.288956 -0.336929 -0.335697 -0.383317 -0.336929 -0.384775 -0.383317 -0.431016 -0.384775 -0.432468 -0.431016 -0.47893 -0.432468 -0.479964 -0.47893 -0.527186 -0.479964 -0.527174 -0.527186 -0.575917 -0.527174 -0.573981 -0.575917 -0.625432 -0.573981 -0.620454 -0.625432 -0.676767 -0.620454 -0.66719 -0.676767 -0.733855 -0.66719 -0.71742 -0.733855 -0.804782 -0.71742 -0.78367 -0.804782 -0.883748 -0.78367 -0.872093 -0.883748 -0.934769 -0.872093 -0.935341 -0.934769 -0.987297 -0.935341 -1.00058 -0.987297 -1.06812 -1.00058 -1.09103 -1.06812 -1.14004 -1.09103 -1.15807 -1.14004 -1.19741 -1.15807 -1.20805 -1.19741 -1.24863 -1.20805 -1.25359 -1.24863 -1.29806 -1.25359 -1.29806 1.29806 1.25359 1.29806 1.25843 1.25359 1.20805 1.25843 1.21845 1.20805 1.15807 1.21845 1.17702 1.15807 1.09103 1.17702 1.12139 1.09103 1.00058 1.12139 1.02285 1.00058 0.935341 1.02285 0.935909 0.935341 0.872093 0.935909 0.851619 0.872093 0.78367 0.851619 0.755263 0.78367 0.71742 0.755263 0.700298 0.71742 0.66719 0.700298 0.658289 0.66719 0.620454 0.658289 0.616247 0.620454 0.573981 0.616247 0.572864 0.573981 0.527174 0.572864 0.527884 0.527174 0.479964 0.527884 0.481567 0.479964 0.432468 0.481567 0.434318 0.432468 0.384775 0.434318 0.386472 0.384775 0.336929 0.386472 0.338273 0.336929 0.288956 0.338273 0.289893 0.288956 0.240882 0.289893 0.241453 0.240882 0.192741 0.241453 0.193033 0.192741 0.144564 0.193033 0.144677 0.144564 0.0963755 0.144677 0.0963973 0.0963755 0.0481866 0.0963973 0.048181 0.0481866 0 0.048181 0 0 -0.0481866 0 -0.048181 -0.0481866 -0.0963755 -0.048181 -0.0963973 -0.0963755 -0.144564 -0.0963973 -0.144677 -0.144564 -0.192741 -0.144677 -0.193033 -0.192741 -0.240882 -0.193033 -0.241453 -0.240882 -0.288956 -0.241453 -0.289893 -0.288956 -0.336929 -0.289893 -0.338273 -0.336929 -0.384775 -0.338273 -0.386472 -0.384775 -0.432468 -0.386472 -0.434318 -0.432468 -0.479964 -0.434318 -0.481567 -0.479964 -0.527174 -0.481567 -0.527884 -0.527174 -0.573981 -0.527884 -0.572864 -0.573981 -0.620454 -0.572864 -0.616247 -0.620454 -0.66719 -0.616247 -0.658289 -0.66719 -0.71742 -0.658289 -0.700298 -0.71742 -0.78367 -0.700298 -0.755263 -0.78367 -0.872093 -0.755263 -0.851619 -0.872093 -0.935341 -0.851619 -0.935909 -0.935341 -1.00058 -0.935909 -1.02285 -1.00058 -1.09103 -1.02285 -1.12139 -1.09103 -1.15807 -1.12139 -1.17702 -1.15807 -1.20805 -1.17702 -1.21845 -1.20805 -1.25359 -1.21845 -1.25843 -1.25359 -1.29806 -1.25843 -1.29806 1.29806 1.25843 1.29806 1.26296 1.25843 1.21845 1.26296 1.22831 1.21845 1.17702 1.22831 1.19471 1.17702 1.12139 1.19471 1.15826 1.12139 1.02285 1.15826 1.06261 1.02285 0.935909 1.06261 0.936445 0.935909 0.851619 0.936445 0.813754 0.851619 0.755263 0.813754 0.720375 0.755263 0.700298 0.720375 0.684666 0.700298 0.658289 0.684666 0.650395 0.658289 0.616247 0.650395 0.613098 0.616247 0.572864 0.613098 0.572773 0.572864 0.527884 0.572773 0.529449 0.527884 0.481567 0.529449 0.483819 0.481567 0.434318 0.483819 0.436603 0.434318 0.386472 0.436603 0.388413 0.386472 0.338273 0.388413 0.339711 0.338273 0.289