# vtk DataFile Version 3.0
#This file was generated by the deal.II library on 2017/9/27 at 13:18:39
ASCII
DATASET UNSTRUCTURED_GRID

POINTS 2688 double
-5.63207 0 0
-5.3974 0 0
-5.63207 0.0714286 0
-5.3974 0.0714286 0
-5.3974 0 0
-5.16273 0 0
-5.3974 0.0714286 0
-5.16273 0.0714286 0
-5.16273 0 0
-4.92806 0 0
-5.16273 0.0714286 0
-4.92806 0.0714286 0
-4.92806 0 0
-4.69339 0 0
-4.92806 0.0714286 0
-4.69339 0.0714286 0
-4.69339 0 0
-4.45872 0 0
-4.69339 0.0714286 0
-4.45872 0.0714286 0
-4.45872 0 0
-4.22405 0 0
-4.45872 0.0714286 0
-4.22405 0.0714286 0
-4.22405 0 0
-3.98938 0 0
-4.22405 0.0714286 0
-3.98938 0.0714286 0
-3.98938 0 0
-3.75472 0 0
-3.98938 0.0714286 0
-3.75472 0.0714286 0
-3.75472 0 0
-3.52005 0 0
-3.75472 0.0714286 0
-3.52005 0.0714286 0
-3.52005 0 0
-3.28538 0 0
-3.52005 0.0714286 0
-3.28538 0.0714286 0
-3.28538 0 0
-3.05071 0 0
-3.28538 0.0714286 0
-3.05071 0.0714286 0
-3.05071 0 0
-2.81604 0 0
-3.05071 0.0714286 0
-2.81604 0.0714286 0
-2.81604 0 0
-2.58137 0 0
-2.81604 0.0714286 0
-2.58137 0.0714286 0
-2.58137 0 0
-2.3467 0 0
-2.58137 0.0714286 0
-2.3467 0.0714286 0
-2.3467 0 0
-2.11203 0 0
-2.3467 0.0714286 0
-2.11203 0.0714286 0
-2.11203 0 0
-1.87736 0 0
-2.11203 0.0714286 0
-1.87736 0.0714286 0
-1.87736 0 0
-1.64269 0 0
-1.87736 0.0714286 0
-1.64269 0.0714286 0
-1.64269 0 0
-1.40802 0 0
-1.64269 0.0714286 0
-1.40802 0.0714286 0
-1.40802 0 0
-1.17335 0 0
-1.40802 0.0714286 0
-1.17335 0.0714286 0
-1.17335 0 0
-0.938679 0 0
-1.17335 0.0714286 0
-0.938679 0.0714286 0
-0.938679 0 0
-0.704009 0 0
-0.938679 0.0714286 0
-0.704009 0.0714286 0
-0.704009 0 0
-0.469339 0 0
-0.704009 0.0714286 0
-0.469339 0.0714286 0
-0.469339 0 0
-0.23467 0 0
-0.469339 0.0714286 0
-0.23467 0.0714286 0
-0.23467 0 0
0 0 0
-0.23467 0.0714286 0
0 0.0714286 0
0 0 0
0.23467 0 0
0 0.0714286 0
0.23467 0.0714286 0
0.23467 0 0
0.469339 0 0
0.23467 0.0714286 0
0.469339 0.0714286 0
0.469339 0 0
0.704009 0 0
0.469339 0.0714286 0
0.704009 0.0714286 0
0.704009 0 0
0.938679 0 0
0.704009 0.0714286 0
0.938679 0.0714286 0
0.938679 0 0
1.17335 0 0
0.938679 0.0714286 0
1.17335 0.0714286 0
1.17335 0 0
1.40802 0 0
1.17335 0.0714286 0
1.40802 0.0714286 0
1.40802 0 0
1.64269 0 0
1.40802 0.0714286 0
1.64269 0.0714286 0
1.64269 0 0
1.87736 0 0
1.64269 0.0714286 0
1.87736 0.0714286 0
1.87736 0 0
2.11203 0 0
1.87736 0.0714286 0
2.11203 0.0714286 0
2.11203 0 0
2.3467 0 0
2.11203 0.0714286 0
2.3467 0.0714286 0
2.3467 0 0
2.58137 0 0
2.3467 0.0714286 0
2.58137 0.0714286 0
2.58137 0 0
2.81604 0 0
2.58137 0.0714286 0
2.81604 0.0714286 0
2.81604 0 0
3.05071 0 0
2.81604 0.0714286 0
3.05071 0.0714286 0
3.05071 0 0
3.28538 0 0
3.05071 0.0714286 0
3.28538 0.0714286 0
3.28538 0 0
3.52005 0 0
3.28538 0.0714286 0
3.52005 0.0714286 0
3.52005 0 0
3.75472 0 0
3.52005 0.0714286 0
3.75472 0.0714286 0
3.75472 0 0
3.98938 0 0
3.75472 0.0714286 0
3.98938 0.0714286 0
3.98938 0 0
4.22405 0 0
3.98938 0.0714286 0
4.22405 0.0714286 0
4.22405 0 0
4.45872 0 0
4.22405 0.0714286 0
4.45872 0.0714286 0
4.45872 0 0
4.69339 0 0
4.45872 0.0714286 0
4.69339 0.0714286 0
4.69339 0 0
4.92806 0 0
4.69339 0.0714286 0
4.92806 0.0714286 0
4.92806 0 0
5.16273 0 0
4.92806 0.0714286 0
5.16273 0.0714286 0
5.16273 0 0
5.3974 0 0
5.16273 0.0714286 0
5.3974 0.0714286 0
5.3974 0 0
5.63207 0 0
5.3974 0.0714286 0
5.63207 0.0714286 0
-5.63207 0.0714286 0
-5.3974 0.0714286 0
-5.63207 0.142857 0
-5.3974 0.142857 0
-5.3974 0.0714286 0
-5.16273 0.0714286 0
-5.3974 0.142857 0
-5.16273 0.142857 0
-5.16273 0.0714286 0
-4.92806 0.0714286 0
-5.16273 0.142857 0
-4.92806 0.142857 0
-4.92806 0.0714286 0
-4.69339 0.0714286 0
-4.92806 0.142857 0
-4.69339 0.142857 0
-4.69339 0.0714286 0
-4.45872 0.0714286 0
-4.69339 0.142857 0
-4.45872 0.142857 0
-4.45872 0.0714286 0
-4.22405 0.0714286 0
-4.45872 0.142857 0
-4.22405 0.142857 0
-4.22405 0.0714286 0
-3.98938 0.0714286 0
-4.22405 0.142857 0
-3.98938 0.142857 0
-3.98938 0.0714286 0
-3.75472 0.0714286 0
-3.98938 0.142857 0
-3.75472 0.142857 0
-3.75472 0.0714286 0
-3.52005 0.0714286 0
-3.75472 0.142857 0
-3.52005 0.142857 0
-3.52005 0.0714286 0
-3.28538 0.0714286 0
-3.52005 0.142857 0
-3.28538 0.142857 0
-3.28538 0.0714286 0
-3.05071 0.0714286 0
-3.28538 0.142857 0
-3.05071 0.142857 0
-3.05071 0.0714286 0
-2.81604 0.0714286 0
-3.05071 0.142857 0
-2.81604 0.142857 0
-2.81604 0.0714286 0
-2.58137 0.0714286 0
-2.81604 0.142857 0
-2.58137 0.142857 0
-2.58137 0.0714286 0
-2.3467 0.0714286 0
-2.58137 0.142857 0
-2.3467 0.142857 0
-2.3467 0.0714286 0
-2.11203 0.0714286 0
-2.3467 0.142857 0
-2.11203 0.142857 0
-2.11203 0.0714286 0
-1.87736 0.0714286 0
-2.11203 0.142857 0
-1.87736 0.142857 0
-1.87736 0.0714286 0
-1.64269 0.0714286 0
-1.87736 0.142857 0
-1.64269 0.142857 0
-1.64269 0.0714286 0
-1.40802 0.0714286 0
-1.64269 0.142857 0
-1.40802 0.142857 0
-1.40802 0.0714286 0
-1.17335 0.0714286 0
-1.40802 0.142857 0
-1.17335 0.142857 0
-1.17335 0.0714286 0
-0.938679 0.0714286 0
-1.17335 0.142857 0
-0.938679 0.142857 0
-0.938679 0.0714286 0
-0.704009 0.0714286 0
-0.938679 0.142857 0
-0.704009 0.142857 0
-0.704009 0.0714286 0
-0.469339 0.0714286 0
-0.704009 0.142857 0
-0.469339 0.142857 0
-0.469339 0.0714286 0
-0.23467 0.0714286 0
-0.469339 0.142857 0
-0.23467 0.142857 0
-0.23467 0.0714286 0
0 0.0714286 0
-0.23467 0.142857 0
0 0.142857 0
0 0.0714286 0
0.23467 0.0714286 0
0 0.142857 0
0.23467 0.142857 0
0.23467 0.0714286 0
0.469339 0.0714286 0
0.23467 0.142857 0
0.469339 0.142857 0
0.469339 0.0714286 0
0.704009 0.0714286 0
0.469339 0.142857 0
0.704009 0.142857 0
0.704009 0.0714286 0
0.938679 0.0714286 0
0.704009 0.142857 0
0.938679 0.142857 0
0.938679 0.0714286 0
1.17335 0.0714286 0
0.938679 0.142857 0
1.17335 0.142857 0
1.17335 0.0714286 0
1.40802 0.0714286 0
1.17335 0.142857 0
1.40802 0.142857 0
1.40802 0.0714286 0
1.64269 0.0714286 0
1.40802 0.142857 0
1.64269 0.142857 0
1.64269 0.0714286 0
1.87736 0.0714286 0
1.64269 0.142857 0
1.87736 0.142857 0
1.87736 0.0714286 0
2.11203 0.0714286 0
1.87736 0.142857 0
2.11203 0.142857 0
2.11203 0.0714286 0
2.3467 0.0714286 0
2.11203 0.142857 0
2.3467 0.142857 0
2.3467 0.0714286 0
2.58137 0.0714286 0
2.3467 0.142857 0
2.58137 0.142857 0
2.58137 0.0714286 0
2.81604 0.0714286 0
2.58137 0.142857 0
2.81604 0.142857 0
2.81604 0.0714286 0
3.05071 0.0714286 0
2.81604 0.142857 0
3.05071 0.142857 0
3.05071 0.0714286 0
3.28538 0.0714286 0
3.05071 0.142857 0
3.28538 0.142857 0
3.28538 0.0714286 0
3.52005 0.0714286 0
3.28538 0.142857 0
3.52005 0.142857 0
3.52005 0.0714286 0
3.75472 0.0714286 0
3.52005 0.142857 0
3.75472 0.142857 0
3.75472 0.0714286 0
3.98938 0.0714286 0
3.75472 0.142857 0
3.98938 0.142857 0
3.98938 0.0714286 0
4.22405 0.0714286 0
3.98938 0.142857 0
4.22405 0.142857 0
4.22405 0.0714286 0
4.45872 0.0714286 0
4.22405 0.142857 0
4.45872 0.142857 0
4.45872 0.0714286 0
4.69339 0.0714286 0
4.45872 0.142857 0
4.69339 0.142857 0
4.69339 0.0714286 0
4.92806 0.0714286 0
4.69339 0.142857 0
4.92806 0.142857 0
4.92806 0.0714286 0
5.16273 0.0714286 0
4.92806 0.142857 0
5.16273 0.142857 0
5.16273 0.0714286 0
5.3974 0.0714286 0
5.16273 0.142857 0
5.3974 0.142857 0
5.3974 0.0714286 0
5.63207 0.0714286 0
5.3974 0.142857 0
5.63207 0.142857 0
-5.63207 0.142857 0
-5.3974 0.142857 0
-5.63207 0.214286 0
-5.3974 0.214286 0
-5.3974 0.142857 0
-5.16273 0.142857 0
-5.3974 0.214286 0
-5.16273 0.214286 0
-5.16273 0.142857 0
-4.92806 0.142857 0
-5.16273 0.214286 0
-4.92806 0.214286 0
-4.92806 0.142857 0
-4.69339 0.142857 0
-4.92806 0.214286 0
-4.69339 0.214286 0
-4.69339 0.142857 0
-4.45872 0.142857 0
-4.69339 0.214286 0
-4.45872 0.214286 0
-4.45872 0.142857 0
-4.22405 0.142857 0
-4.45872 0.214286 0
-4.22405 0.214286 0
-4.22405 0.142857 0
-3.98938 0.142857 0
-4.22405 0.214286 0
-3.98938 0.214286 0
-3.98938 0.142857 0
-3.75472 0.142857 0
-3.98938 0.214286 0
-3.75472 0.214286 0
-3.75472 0.142857 0
-3.52005 0.142857 0
-3.75472 0.214286 0
-3.52005 0.214286 0
-3.52005 0.142857 0
-3.28538 0.142857 0
-3.52005 0.214286 0
-3.28538 0.214286 0
-3.28538 0.142857 0
-3.05071 0.142857 0
-3.28538 0.214286 0
-3.05071 0.214286 0
-3.05071 0.142857 0
-2.81604 0.142857 0
-3.05071 0.214286 0
-2.81604 0.214286 0
-2.81604 0.142857 0
-2.58137 0.142857 0
-2.81604 0.214286 0
-2.58137 0.214286 0
-2.58137 0.142857 0
-2.3467 0.142857 0
-2.58137 0.214286 0
-2.3467 0.214286 0
-2.3467 0.142857 0
-2.11203 0.142857 0
-2.3467 0.214286 0
-2.11203 0.214286 0
-2.11203 0.142857 0
-1.87736 0.142857 0
-2.11203 0.214286 0
-1.87736 0.214286 0
-1.87736 0.142857 0
-1.64269 0.142857 0
-1.87736 0.214286 0
-1.64269 0.214286 0
-1.64269 0.142857 0
-1.40802 0.142857 0
-1.64269 0.214286 0
-1.40802 0.214286 0
-1.40802 0.142857 0
-1.17335 0.142857 0
-1.40802 0.214286 0
-1.17335 0.214286 0
-1.17335 0.142857 0
-0.938679 0.142857 0
-1.17335 0.214286 0
-0.938679 0.214286 0
-0.938679 0.142857 0
-0.704009 0.142857 0
-0.938679 0.214286 0
-0.704009 0.214286 0
-0.704009 0.142857 0
-0.469339 0.142857 0
-0.704009 0.214286 0
-0.469339 0.214286 0
-0.469339 0.142857 0
-0.23467 0.142857 0
-0.469339 0.214286 0
-0.23467 0.214286 0
-0.23467 0.142857 0
0 0.142857 0
-0.23467 0.214286 0
0 0.214286 0
0 0.142857 0
0.23467 0.142857 0
0 0.214286 0
0.23467 0.214286 0
0.23467 0.142857 0
0.469339 0.142857 0
0.23467 0.214286 0
0.469339 0.214286 0
0.469339 0.142857 0
0.704009 0.142857 0
0.469339 0.214286 0
0.704009 0.214286 0
0.704009 0.142857 0
0.938679 0.142857 0
0.704009 0.214286 0
0.938679 0.214286 0
0.938679 0.142857 0
1.17335 0.142857 0
0.938679 0.214286 0
1.17335 0.214286 0
1.17335 0.142857 0
1.40802 0.142857 0
1.17335 0.214286 0
1.40802 0.214286 0
1.40802 0.142857 0
1.64269 0.142857 0
1.40802 0.214286 0
1.64269 0.214286 0
1.64269 0.142857 0
1.87736 0.142857 0
1.64269 0.214286 0
1.87736 0.214286 0
1.87736 0.142857 0
2.11203 0.142857 0
1.87736 0.214286 0
2.11203 0.214286 0
2.11203 0.142857 0
2.3467 0.142857 0
2.11203 0.214286 0
2.3467 0.214286 0
2.3467 0.142857 0
2.58137 0.142857 0
2.3467 0.214286 0
2.58137 0.214286 0
2.58137 0.142857 0
2.81604 0.142857 0
2.58137 0.214286 0
2.81604 0.214286 0
2.81604 0.142857 0
3.05071 0.142857 0
2.81604 0.214286 0
[...]
POINT_DATA 2688
SCALARS x1_displacement double 1
LOOKUP_TABLE default
1.27125 1.19471 1.27125 1.19515 1.19471 1.11922 1.19515 1.11997 1.11922 1.04753 1.11997 1.04831 1.04753 0.98507 1.04831 0.985597 0.98507 0.938445 0.985597 0.938655 0.938445 0.907708 0.938655 0.907765 0.907708 0.877762 0.907765 0.877661 0.877762 0.833312 0.877661 0.832862 0.833312 0.774428 0.832862 0.773658 0.774428 0.708348 0.773658 0.707487 0.708348 0.641515 0.707487 0.640781 0.641515 0.577672 0.640781 0.577164 0.577672 0.518297 0.577164 0.518013 0.518297 0.46345 0.518013 0.463337 0.46345 0.412445 0.463337 0.412444 0.412445 0.364301 0.412444 0.364361 0.364301 0.318013 0.364361 0.318097 0.318013 0.272717 0.318097 0.272802 0.272717 0.227769 0.272802 0.227842 0.227769 0.182758 0.227842 0.182813 0.182758 0.137477 0.182813 0.137515 0.137477 0.0918767 0.137515 0.0918997 0.0918767 0.0460117 0.0918997 0.0460224 0.0460117 0 0.0460224 0 0 -0.0460117 0 -0.0460224 -0.0460117 -0.0918767 -0.0460224 -0.0918997 -0.0918767 -0.137477 -0.0918997 -0.137515 -0.137477 -0.182758 -0.137515 -0.182813 -0.182758 -0.227769 -0.182813 -0.227842 -0.227769 -0.272717 -0.227842 -0.272802 -0.272717 -0.318013 -0.272802 -0.318097 -0.318013 -0.364301 -0.318097 -0.364361 -0.364301 -0.412445 -0.364361 -0.412444 -0.412445 -0.46345 -0.412444 -0.463337 -0.46345 -0.518297 -0.463337 -0.518013 -0.518297 -0.577672 -0.518013 -0.577164 -0.577672 -0.641515 -0.577164 -0.640781 -0.641515 -0.708348 -0.640781 -0.707487 -0.708348 -0.774428 -0.707487 -0.773658 -0.774428 -0.833312 -0.773658 -0.832862 -0.833312 -0.877762 -0.832862 -0.877661 -0.877762 -0.907708 -0.877661 -0.907765 -0.907708 -0.938445 -0.907765 -0.938655 -0.938445 -0.98507 -0.938655 -0.985597 -0.98507 -1.04753 -0.985597 -1.04831 -1.04753 -1.11922 -1.04831 -1.11997 -1.11922 -1.19471 -1.11997 -1.19515 -1.19471 -1.27125 -1.19515 -1.27125 1.27125 1.19515 1.27125 1.19644 1.19515 1.11997 1.19644 1.12214 1.11997 1.04831 1.12214 1.05059 1.04831 0.985597 1.05059 0.987151 0.985597 0.938655 0.987151 0.939234 0.938655 0.907765 0.939234 0.907924 0.907765 0.877661 0.907924 0.87739 0.877661 0.832862 0.87739 0.831542 0.832862 0.773658 0.831542 0.771416 0.773658 0.707487 0.771416 0.705029 0.707487 0.640781 0.705029 0.638727 0.640781 0.577164 0.638727 0.575767 0.577164 0.518013 0.575767 0.517242 0.518013 0.463337 0.517242 0.463042 0.463337 0.412444 0.463042 0.412455 0.412444 0.364361 0.412455 0.364538 0.364361 0.318097 0.364538 0.318338 0.318097 0.272802 0.318338 0.273041 0.272802 0.227842 0.273041 0.228045 0.227842 0.182813 0.228045 0.182967 0.182813 0.137515 0.182967 0.137621 0.137515 0.0918997 0.137621 0.0919632 0.0918997 0.0460224 0.0919632 0.0460518 0.0460224 0 0.0460518 0 0 -0.0460224 0 -0.0460518 -0.0460224 -0.0918997 -0.0460518 -0.0919632 -0.0918997 -0.137515 -0.0919632 -0.137621 -0.137515 -0.182813 -0.137621 -0.182967 -0.182813 -0.227842 -0.182967 -0.228045 -0.227842 -0.272802 -0.228045 -0.273041 -0.272802 -0.318097 -0.273041 -0.318338 -0.318097 -0.364361 -0.318338 -0.364538 -0.364361 -0.412444 -0.364538 -0.412455 -0.412444 -0.463337 -0.412455 -0.463042 -0.463337 -0.518013 -0.463042 -0.517242 -0.518013 -0.577164 -0.517242 -0.575767 -0.577164 -0.640781 -0.575767 -0.638727 -0.640781 -0.707487 -0.638727 -0.705029 -0.707487 -0.773658 -0.705029 -0.771416 -0.773658 -0.832862 -0.771416 -0.831542 -0.832862 -0.877661 -0.831542 -0.87739 -0.877661 -0.907765 -0.87739 -0.907924 -0.907765 -0.938655 -0.907924 -0.939234 -0.938655 -0.985597 -0.939234 -0.987151 -0.985597 -1.04831 -0.987151 -1.05059 -1.04831 -1.11997 -1.05059 -1.12214 -1.11997 -1.19515 -1.12214 -1.19644 -1.19515 -1.27125 -1.19644 -1.27125 1.27125 1.19644 1.27125 1.19849 1.19644 1.12214 1.19849 1.12566 1.12214 1.05059 1.12566 1.05435 1.05059 0.987151 1.05435 0.989708 0.987151 0.939234 0.989708 0.940136 0.939234 0.907924 0.940136 0.908168 0.907924 0.87739 0.908168 0.876972 0.87739 0.831542 0.876972 0.829371 0.831542 0.771416 0.829371 0.767772 0.771416 0.705029 0.767772 0.701121 0.705029 0.638727 0.701121 0.635528 0.638727 0.575767 0.635528 0.573628 0.575767 0.517242 0.573628 0.516083 0.517242 0.463042 0.516083 0.462612 0.463042 0.412455 0.462612 0.412492 0.412455 0.364538 0.412492 0.364824 0.364538 0.318338 0.364824 0.318717 0.318338 0.273041 0.318717 0.273414 0.273041 0.228045 0.273414 0.228359 0.228045 0.182967 0.228359 0.183204 0.182967 0.137621 0.183204 0.137782 0.137621 0.0919632 0.137782 0.09206 0.0919632 0.0460518 0.09206 0.0460964 0.0460518 0 0.0460964 0 0 -0.0460518 0 -0.0460964 -0.0460518 -0.0919632 -0.0460964 -0.09206 -0.0919632 -0.137621 -0.09206 -0.137782 -0.137621 -0.182967 -0.137782 -0.183204 -0.182967 -0.228045 -0.183204 -0.228359 -0.228045 -0.273041 -0.228359 -0.273414 -0.273041 -0.318338 -0.273414 -0.318717 -0.318338 -0.364538 -0.318717 -0.364824 -0.364538 -0.412455 -0.364824 -0.412492 -0.412455 -0.463042 -0.412492 -0.462612 -0.463042 -0.517242 -0.462612 -0.516083 -0.517242 -0.575767 -0.516083 -0.573628 -0.575767 -0.638727 -0.573628 -0.635528 -0.638727 -0.705029 -0.635528 -0.701121 -0.705029 -0.771416 -0.701121 -0.767772 -0.771416 -0.831542 -0.767772 -0.829371 -0.831542 -0.87739 -0.829371 -0.876972 -0.87739 -0.907924 -0.876972 -0.908168 -0.907924 -0.939234 -0.908168 -0.940136 -0.939234 -0.987151 -0.940136 -0.989708 -0.987151 -1.05059 -0.989708 -1.05435 -1.05059 -1.12214 -1.05435 -1.12566 -1.12214 -1.19644 -1.12566 -1.19849 -1.19644 -1.27125 -1.19849 -1.27125 1.27125 1.19849 1.27125 1.20128 1.19849 1.12566 1.20128 1.13051 1.12566 1.05435 1.13051 1.05966 1.05435 0.989708 1.05966 0.993404 0.989708 0.940136 0.993404 0.941407 0.940136 0.908168 0.941407 0.908487 0.908168 0.876972 0.908487 0.876348 0.876972 0.829371 0.876348 0.82622 0.829371 0.767772 0.82622 0.762674 0.767772 0.701121 0.762674 0.695855 0.701121 0.635528 0.695855 0.631354 0.635528 0.573628 0.631354 0.570911 0.573628 0.516083 0.570911 0.514651 0.516083 0.462612 0.514651 0.462116 0.462612 0.412492 0.462116 0.412584 0.412492 0.364824 0.412584 0.365224 0.364824 0.318717 0.365224 0.319225 0.318717 0.273414 0.319225 0.273905 0.273414 0.228359 0.273905 0.228767 0.228359 0.183204 0.228767 0.183509 0.183204 0.137782 0.183509 0.137987 0.137782 0.09206 0.137987 0.0921822 0.09206 0.0460964 0.0921822 0.0461524 0.0460964 0 0.0461524 0 0 -0.0460964 0 -0.0461524 -0.0460964 -0.09206 -0.0461524 -0.0921822 -0.09206 -0.137782 -0.0921822 -0.137987 -0.137782 -0.183204 -0.137987 -0.183509 -0.183204 -0.228359 -0.183509 -0.228767 -0.228359 -0.273414 -0.228767 -0.273905 -0.273414 -0.318717 -0.273905 -0.319225 -0.318717 -0.364824 -0.319225 -0.365224 -0.364824 -0.412492 -0.365224 -0.412584 -0.412492 -0.462612 -0.412584 -0.462116 -0.462612 -0.516083 -0.462116 -0.514651 -0.516083 -0.573628 -0.514651 -0.570911 -0.573628 -0.635528 -0.570911 -0.631354 -0.635528 -0.701121 -0.631354 -0.695855 -0.701121 -0.767772 -0.695855 -0.762674 -0.767772 -0.829371 -0.762674 -0.82622 -0.829371 -0.876972 -0.82622 -0.876348 -0.876972 -0.908168 -0.876348 -0.908487 -0.908168 -0.940136 -0.908487 -0.941407 -0.940136 -0.989708 -0.941407 -0.993404 -0.989708 -1.05435 -0.993404 -1.05966 -1.05435 -1.12566 -1.05966 -1.13051 -1.12566 -1.19849 -1.13051 -1.20128 -1.19849 -1.27125 -1.20128 -1.27125 1.27125 1.20128 1.27125 1.20475 1.20128 1.13051 1.20475 1.13672 1.13051 1.05966 1.13672 1.06673 1.05966 0.993404 1.06673 0.998541 0.993404 0.941407 0.998541 0.943192 0.941407 0.908487 0.943192 0.908872 0.908487 0.876348 0.908872 0.875369 0.876348 0.82622 0.875369 0.821806 0.82622 0.762674 0.821806 0.755967 0.762674 0.695855 0.755967 0.689294 0.695855 0.631354 0.689294 0.626382 0.631354 0.570911 0.626382 0.567793 0.570911 0.514651 0.567793 0.513079 0.514651 0.462116 0.513079 0.461635 0.462116 0.412584 0.461635 0.412774 0.412584 0.365224 0.412774 0.365751 0.365224 0.319225 0.365751 0.319857 0.319225 0.273905 0.319857 0.274499 0.273905 0.228767 0.274499 0.229254 0.228767 0.183509 0.229254 0.183865 0.183509 0.137987 0.183865 0.138224 0.137987 0.0921822 0.138224 0.0923212 0.0921822 0.0461524 0.0923212 0.0462155 0.0461524 0 0.0462155 0 0 -0.0461524 0 -0.0462155 -0.0461524 -0.0921822 -0.0462155 -0.0923212 -0.0921822 -0.137987 -0.0923212 -0.138224 -0.137987 -0.183509 -0.138224 -0.183865 -0.183509 -0.228767 -0.183865 -0.229254 -0.228767 -0.273905 -0.229254 -0.274499 -0.273905 -0.319225 -0.274499 -0.319857 -0.319225 -0.365224 -0.319857 -0.365751 -0.365224 -0.412584 -0.365751 -0.412774 -0.412584 -0.462116 -0.412774 -0.461635 -0.462116 -0.514651 -0.461635 -0.513079 -0.514651 -0.570911 -0.513079 -0.567793 -0.570911 -0.631354 -0.567793 -0.626382 -0.631354 -0.695855 -0.626382 -0.689294 -0.695855 -0.762674 -0.689294 -0.755967 -0.762674 -0.82622 -0.755967 -0.821806 -0.82622 -0.876348 -0.821806 -0.875369 -0.876348 -0.908487 -0.875369 -0.908872 -0.908487 -0.941407 -0.908872 -0.943192 -0.941407 -0.993404 -0.943192 -0.998541 -0.993404 -1.05966 -0.998541 -1.06673 -1.05966 -1.13051 -1.06673 -1.13672 -1.13051 -1.20128 -1.13672 -1.20475 -1.20128 -1.27125 -1.20475 -1.27125 1.27125 1.20475 1.27125 1.20883 1.20475 1.13672 1.20883 1.1443 1.13672 1.06673 1.1443 1.07584 1.06673 0.998541 1.07584 1.0056 0.998541 0.943192 1.0056 0.945755 0.943192 0.908872 0.945755 0.909315 0.908872 0.875369 0.909315 0.873771 0.875369 0.821806 0.873771 0.815672 0.821806 0.755967 0.815672 0.747414 0.755967 0.689294 0.747414 0.681508 0.689294 0.626382 0.681508 0.62081 0.626382 0.567793 0.62081 0.564465 0.567793 0.513079 0.564465 0.511507 0.513079 0.461635 0.511507 0.46126 0.461635 0.412774 0.46126 0.413109 0.412774 0.365751 0.413109 0.366425 0.365751 0.319857 0.366425 0.320614 0.319857 0.274499 0.320614 0.275187 0.274499 0.229254 0.275187 0.229802 0.229254 0.183865 0.229802 0.184258 0.183865 0.138224 0.184258 0.138479 0.138224 0.0923212 0.138479 0.0924678 0.0923212 0.0462155 0.0924678 0.0462808 0.0462155 0 0.0462808 0 0 -0.0462155 0 -0.0462808 -0.0462155 -0.0923212 -0.0462808 -0.0924678 -0.0923212 -0.138224 -0.0924678 -0.138479 -0.138224 -0.183865 -0.138479 -0.184258 -0.183865 -0.229254 -0.184258 -0.229802 -0.229254 -0.274499 -0.229802 -0.275187 -0.274499 -0.319857 -0.275187 -0.320614 -0.319857 -0.365751 -0.320614 -0.366425 -0.365751 -0.412774 -0.366425 -0.413109 -0.412774 -0.461635 -0.413109 -0.46126 -0.461635 -0.513079 -0.46126 -0.511507 -0.513079 -0.567793 -0.511507 -0.564465 -0.567793 -0.626382 -0.564465 -0.62081 -0.626382 -0.689294 -0.62081 -0.681508 -0.689294 -0.755967 -0.681508 -0.747414 -0.755967 -0.821806 -0.747414 -0.815672 -0.821806 -0.875369 -0.815672 -0.873771 -0.875369 -0.908872 -0.873771 -0.909315 -0.908872 -0.943192 -0.909315 -0.945755 -0.943192 -0.998541 -0.945755 -1.0056 -0.998541 -1.06673 -1.0056 -1.07584 -1.06673 -1.13672 -1.07584 -1.1443 -1.13672 -1.20475 -1.1443 -1.20883 -1.20475 -1.27125 -1.20883 -1.27125 1.27125 1.20883 1.27125 1.21345 1.20883 1.1443 1.21345 1.1532 1.1443 1.07584 1.1532 1.08732 1.07584 1.0056 1.08732 1.01527 1.0056 0.945755 1.01527 0.949545 0.945755 0.909315 0.949545 0.909808 0.909315 0.873771 0.909808 0.871111 0.873771 0.815672 0.871111 0.807146 0.815672 0.747414 0.807146 0.736738 0.747414 0.681508 0.736738 0.672623 0.681508 0.62081 0.672623 0.614874 0.62081 0.564465 0.614874 0.56113 0.564465 0.511507 0.56113 0.510083 0.511507 0.46126 0.510083 0.461089 0.46126 0.413109 0.461089 0.413646 0.413109 0.366425 0.413646 0.367268 0.366425 0.320614 0.367268 0.321497 0.320614 0.275187 0.321497 0.275958 0.275187 0.229802 0.275958 0.230396 0.229802 0.184258 0.230396 0.184672 0.184258 0.138479 0.184672 0.138739 0.138479 0.0924678 0.138739 0.0926123 0.0924678 0.0462808 0.0926123 0.0463436 0.0462808 0 0.0463436 0 0 -0.0462808 0 -0.0463436 -0.0462808 -0.0924678 -0.0463436 -0.0926123 -0.0924678 -0.138479 -0.0926123 -0.138739 -0.138479 -0.184258 -0.138739 -0.184672 -0.184258 -0.229802 -0.184672 -0.230396 -0.229802 -0.275187 -0.230396 -0.275958 -0.275187 -0.320614 -0.275958 -0.321497 -0.320614 -0.366425 -0.321497 -0.367268 -0.366425 -0.413109 -0.367268 -0.413646 -0.413109 -0.46126 -0.413646 -0.461089 -0.46126 -0.511507 -0.461089 -0.510083 -0.511507 -0.564465 -0.510083 -0.56113 -0.564465 -0.62081 -0.56113 -0.614874 -0.62081 -0.681508 -0.614874 -0.672623 -0.681508 -0.747414 -0.672623 -0.736738 -0.747414 -0.815672 -0.736738 -0.807146 -0.815672 -0.873771 -0.807146 -0.871111 -0.873771 -0.909315 -0.871111 -0.909808 -0.909315 -0.945755 -0.909808 -0.949545 -0.945755 -1.0056 -0.949545 -1.01527 -1.0056 -1.07584 -1.01527 -1.08732 -1.07584 -1.1443 -1.08732 -1.1532 -1.1443 -1.20883 -1.1532 -1.21345 -1.20883 -1.27125 -1.21345 -1.27125 1.27125 1.21345 1.27125 1.21843 1.21345 1.1532 1.21843 1.16326 1.1532 1.08732 1.16326 1.10143 1.08732 1.01527 1.10143 1.02852 1.01527 0.949545 1.02852 0.955312 0.949545 0.909808 0.955312 0.910342 0.909808 0.871111 0.910342 0.866647 0.871111 0.807146 0.866647 0.795278 0.807146 0.736738 0.795278 0.723703 0.736738 0.672623 0.723703 0.662876 0.672623 0.614874 0.662876 0.608855 0.614874 0.56113 0.608855 0.558 0.56113 0.510083 0.558 0.508959 0.510083 0.461089 0.508959 0.461218 0.461089 0.413646 0.461218 0.414439 0.413646 0.367268 0.414439 0.368303 0.367268 0.321497 0.368303 0.322506 0.321497 0.275958 0.322506 0.2768 0.275958 0.230396 0.2768 0.23102 0.230396 0.184672 0.23102 0.185088 0.184672 0.138739 0.185088 0.138989 0.138739 0.0926123 0.138989 0.0927449 0.0926123 0.0463436 0.0927449 0.0463986 0.0463436 0 0.0463986 0 0 -0.0463436 0 -0.0463986 -0.0463436 -0.0926123 -0.0463986 -0.0927449 -0.0926123 -0.138739 -0.0927449 -0.138989 -0.138739 -0.184672 -0.138989 -0.185088 -0.184672 -0.230396 -0.185088 -0.23102 -0.230396 -0.275958 -0.23102 -0.2768 -0.275958 -0.321497 -0.2768 -0.322506 -0.321497 -0.367268 -0.322506 -0.368303 -0.367268 -0.413646 -0.368303 -0.414439 -0.413646 -0.461089 -0.414439 -0.461218 -0.461089 -0.510083 -0.461218 -0.508959 -0.510083 -0.56113 -0.508959 -0.558 -0.56113 -0.614874 -0.558 -0.608855 -0.614874 -0.672623 -0.608855 -0.662876 -0.672623 -0.736738 -0.662876 -0.723703 -0.736738 -0.807146 -0.723703 -0.795278 -0.807146 -0.871111 -0.795278 -0.866647 -0.871111 -0.909808 -0.866647 -0.910342 -0.909808 -0.949545 -0.910342 -0.955312 -0.949545 -1.01527 -0.955312 -1.02852 -1.01527 -1.08732 -1.02852 -1.10143 -1.08732 -1.1532 -1.10143 -1.16326 -1.1532 -1.21345 -1.16326 -1.21843 -1.21345 -1.27125 -1.21843 -1.27125 1.27125 1.21843 1.27125 1.22361 1.21843 1.16326 1.22361 1.17413 1.16326 1.10143 1.17413 1.11822 1.10143 1.02852 1.11822 1.04665 1.02852 0.955312 1.04665 0.964329 0.955312 0.910342 0.964329 0.910906 0.910342 0.866647 0.910906 0.859113 0.866647 0.795278 0.859113 0.778785 0.795278 0.723703 0.778785 0.708267 0.723703 0.662876 0.708267 0.652674 0.662876 0.608855 0.652674 0.603061 0.608855 0.558 0.603061 0.555288 0.558 0.508959 0.555288 0.508285 0.508959 0.461218 0.508285 0.461746 0.461218 0.414439 0.461746 0.415542 0.414439 0.368303 0.415542 0.369552 0.368303 0.322506 0.369552 0.323643 0.322506 0.2768 0.323643 0.2777 0.2768 0.23102 0.2777 0.231656 0.23102 0.185088 0.231656 0.185491 0.185088 0.138989 0.185491 0.139215 0.138989 0.0927449 0.139215 0.0928551 0.0927449 0.0463986 0.0928551 0.0464408 0.0463986 0 0.0464408 0 0 -0.0463986 0 -0.0464408 -0.0463986 -0.0927449 -0.0464408 -0.0928551 -0.0927449 -0.138989 -0.0928551 -0.139215 -0.138989 -0.185088 -0.139215 -0.185491 -0.185088 -0.23102 -0.185491 -0.231656 -0.23102 -0.2768 -0.231656 -0.2777 -0.2768 -0.322506 -0.2777 -0.323643 -0.322506 -0.368303 -0.323643 -0.369552 -0.368303 -0.414439 -0.369552 -0.415542 -0.414439 -0.461218 -0.415542 -0.461746 -0.461218 -0.508959 -0.461746 -0.508285 -0.508959 -0.558 -0.508285 -0.555288 -0.558 -0.608855 -0.555288 -0.603061 -0.608855 -0.662876 -0.603061 -0.652674 -0.662876 -0.723703 -0.652674 -0.708267 -0.723703 -0.795278 -0.708267 -0.778785 -0.795278 -0.866647 -0.778785 -0.859113 -0.866647 -0.910342 -0.859113 -0.910906 -0.910342 -0.955312 -0.910906 -0.964329 -0.955312 -1.02852 -0.964329 -1.04665 -1.02852 -1.10143 -1.04665 -1.11822 -1.10143 -1.16326 -1.11822 -1.17413 -1.16326 -1.21843 -1.17413 -1.22361 -1.21843 -1.27125 -1.22361 -1.27125 1.27125 1.22361 1.27125 1.22879 1.22361 1.17413 1.22879 1.18526 1.17413 1.11822 1.18526 1.13722 1.11822 1.04665 1.13722 1.0712 1.04665 0.964329 1.0712 0.978845 0.964329 0.910906 0.978845 0.911487 0.910906 0.859113 0.911487 0.84627 0.859113 0.778785 0.84627 0.756072 0.778785 0.708267 0.756072 0.690887 0.708267 0.652674 0.690887 0.642595 0.652674 0.603061 0.642595 0.597801 0.603061 0.555288 0.597801 0.553208 0.555288 0.508285 0.553208 0.508212 0.508285 0.461746 0.508212 0.462766 0.461746 0.415542 0.462766 0.417004 0.415542 0.369552 0.417004 0.371032 0.369552 0.323643 0.371032 0.324902 0.323643 0.2777 0.324902 0.278642 0.2777 0.231656 0.278642 0.232283 0.231656 0.185491 0.232283 0.185859 0.185491 0.139215 0.185859 0.139401 0.139215 0.0928551 0.139401 0.0929325 0.0928551 0.0464408 0.0929325 0.0464649 0.0464408 0 0.0464649 0 0 -0.0464408 0 -0.0464649 -0.0464408 -0.0928551 -0.0464649 -0.0929325 -0.0928551 -0.139215 -0.0929325 -0.139401 -0.139215 -0.185491 -0.139401 -0.185859 -0.185491 -0.231656 -0.185859 -0.232283 -0.231656 -0.2777 -0.232283 -0.278642 -0.2777 -0.323643 -0.278642 -0.324902 -0.323643 -0.369552 -0.324902 -0.371032 -0.369552 -0.415542 -0.371032 -0.417004 -0.415542 -0.461746 -0.417004 -0.462766 -0.461746 -0.508285 -0.462766 -0.508212 -0.508285 -0.555288 -0.508212 -0.553208 -0.555288 -0.603061 -0.553208 -0.597801 -0.603061 -0.652674 -0.597801 -0.642595 -0.652674 -0.708267 -0.642595 -0.690887 -0.708267 -0.778785 -0.690887 -0.756072 -0.778785 -0.859113 -0.756072 -0.84627 -0.859113 -0.910906 -0.84627 -0.911487 -0.910906 -0.964329 -0.911487 -0.978845 -0.964329 -1.04665 -0.978845 -1.0712 -1.04665 -1.11822 -1.0712 -1.13722 -1.11822 -1.17413 -1.13722 -1.18526 -1.17413 -1.22361 -1.18526 -1.22879 -1.22361 -1.27125 -1.22879 -1.27125 1.27125 1.22879 1.27125 1.23384 1.22879 1.18526 1.23384 1.19611 1.18526 1.13722 1.19611 1.15703 1.13722 1.0712 1.15703 1.10353 1.0712 0.978845 1.10353 1.00316 0.978845 0.911487 1.00316 0.912067 0.911487 0.84627 0.912067 0.823808 0.84627 0.756072 0.823808 0.72572 0.756072 0.690887 0.72572 0.672939 0.690887 0.642595 0.672939 0.633247 0.642595 0.597801 0.633247 0.593355 0.597801 0.553208 0.593355 0.55198 0.553208 0.508212 0.55198 0.508883 0.508212 0.462766 0.508883 0.464367 0.462766 0.417004 0.464367 0.418872 0.417004 0.371032 0.418872 0.372755 0.371032 0.324902 0.372755 0.326274 0.324902 0.278642 0.326274 0.279606 0.278642 0.232283 0.279606 0.232879 0.232283 0.185859 0.232879 0.186173 0.185859 0.139401 0.186173 0.139531 0.139401 0.0929325 0.139531 0.0929664 0.0929325 0.0464649 0.0929664 0.0464655 0.0464649 0 0.0464655 0 0 -0.0464649 0 -0.0464655 -0.0464649 -0.0929325 -0.0464655 -0.0929664 -0.0929325 -0.139401 -0.0929664 -0.139531 -0.139401 -0.185859 -0.139531 -0.186173 -0.185859 -0.232283 -0.186173 -0.232879 -0.232283 -0.278642 -0.232879 -0.279606 -0.278642 -0.324902 -0.279606 -0.326274 -0.324902 -0.371032 -0.326274 -0.372755 -0.371032 -0.417004 -0.372755 -0.418872 -0.417004 -0.462766 -0.418872 -0.464367 -0.462766 -0.508212 -0.464367 -0.508883 -0.508212 -0.553208 -0.508883 -0.55198 -0.553208 -0.597801 -0.55198 -0.593355 -0.597801 -0.642595 -0.593355 -0.633247 -0.642595 -0.690887 -0.633247 -0.672939 -0.690887 -0.756072 -0.672939 -0.72572 -0.756072 -0.84627 -0.72572 -0.823808 -0.84627 -0.911487 -0.823808 -0.912067 -0.911487 -0.978845 -0.912067 -1.00316 -0.978845 -1.0712 -1.00316 -1.10353 -1.0712 -1.13722 -1.10353 -1.15703 -1.13722 -1.18526 -1.15703 -1.19611 -1.18526 -1.22879 -1.19611 -1.23384 -1.22879 -1.27125 -1.23384 -1.27125 1.27125 1.23384 1.27125 1.23853 1.23384 1.19611 1.23853 1.20639 1.19611 1.15703 1.20639 1.17537 1.15703 1.10353 1.17537 1.14223 1.10353 1.00316 1.14223 1.04665 1.00316 0.912067 1.04665 0.912614 0.912067 0.823808 0.912614 0.782234 0.823808 0.72572 0.782234 0.689015 0.72572 0.672939 0.689015 0.656682 0.672939 0.633247 0.656682 0.624957 0.633247 0.593355 0.624957 0.590027 0.593355 0.55198 0.590027 0.551815 0.55198 0.508883 0.551815 0.510431 0.508883 0.464367 0.510431 0.466632 0.464367 0.418872 0.466632 0.421183 0.418872 0.372755 0.421183 0.374726 0.