# vtk DataFile Version 3.0
#This file was generated by the deal.II library on 2017/9/27 at 13:17:56
ASCII
DATASET UNSTRUCTURED_GRID

POINTS 2688 double
-5.63207 0 0
-5.3974 0 0
-5.63207 0.0714286 0
-5.3974 0.0714286 0
-5.3974 0 0
-5.16273 0 0
-5.3974 0.0714286 0
-5.16273 0.0714286 0
-5.16273 0 0
-4.92806 0 0
-5.16273 0.0714286 0
-4.92806 0.0714286 0
-4.92806 0 0
-4.69339 0 0
-4.92806 0.0714286 0
-4.69339 0.0714286 0
-4.69339 0 0
-4.45872 0 0
-4.69339 0.0714286 0
-4.45872 0.0714286 0
-4.45872 0 0
-4.22405 0 0
-4.45872 0.0714286 0
-4.22405 0.0714286 0
-4.22405 0 0
-3.98938 0 0
-4.22405 0.0714286 0
-3.98938 0.0714286 0
-3.98938 0 0
-3.75472 0 0
-3.98938 0.0714286 0
-3.75472 0.0714286 0
-3.75472 0 0
-3.52005 0 0
-3.75472 0.0714286 0
-3.52005 0.0714286 0
-3.52005 0 0
-3.28538 0 0
-3.52005 0.0714286 0
-3.28538 0.0714286 0
-3.28538 0 0
-3.05071 0 0
-3.28538 0.0714286 0
-3.05071 0.0714286 0
-3.05071 0 0
-2.81604 0 0
-3.05071 0.0714286 0
-2.81604 0.0714286 0
-2.81604 0 0
-2.58137 0 0
-2.81604 0.0714286 0
-2.58137 0.0714286 0
-2.58137 0 0
-2.3467 0 0
-2.58137 0.0714286 0
-2.3467 0.0714286 0
-2.3467 0 0
-2.11203 0 0
-2.3467 0.0714286 0
-2.11203 0.0714286 0
-2.11203 0 0
-1.87736 0 0
-2.11203 0.0714286 0
-1.87736 0.0714286 0
-1.87736 0 0
-1.64269 0 0
-1.87736 0.0714286 0
-1.64269 0.0714286 0
-1.64269 0 0
-1.40802 0 0
-1.64269 0.0714286 0
-1.40802 0.0714286 0
-1.40802 0 0
-1.17335 0 0
-1.40802 0.0714286 0
-1.17335 0.0714286 0
-1.17335 0 0
-0.938679 0 0
-1.17335 0.0714286 0
-0.938679 0.0714286 0
-0.938679 0 0
-0.704009 0 0
-0.938679 0.0714286 0
-0.704009 0.0714286 0
-0.704009 0 0
-0.469339 0 0
-0.704009 0.0714286 0
-0.469339 0.0714286 0
-0.469339 0 0
-0.23467 0 0
-0.469339 0.0714286 0
-0.23467 0.0714286 0
-0.23467 0 0
0 0 0
-0.23467 0.0714286 0
0 0.0714286 0
0 0 0
0.23467 0 0
0 0.0714286 0
0.23467 0.0714286 0
0.23467 0 0
0.469339 0 0
0.23467 0.0714286 0
0.469339 0.0714286 0
0.469339 0 0
0.704009 0 0
0.469339 0.0714286 0
0.704009 0.0714286 0
0.704009 0 0
0.938679 0 0
0.704009 0.0714286 0
0.938679 0.0714286 0
0.938679 0 0
1.17335 0 0
0.938679 0.0714286 0
1.17335 0.0714286 0
1.17335 0 0
1.40802 0 0
1.17335 0.0714286 0
1.40802 0.0714286 0
1.40802 0 0
1.64269 0 0
1.40802 0.0714286 0
1.64269 0.0714286 0
1.64269 0 0
1.87736 0 0
1.64269 0.0714286 0
1.87736 0.0714286 0
1.87736 0 0
2.11203 0 0
1.87736 0.0714286 0
2.11203 0.0714286 0
2.11203 0 0
2.3467 0 0
2.11203 0.0714286 0
2.3467 0.0714286 0
2.3467 0 0
2.58137 0 0
2.3467 0.0714286 0
2.58137 0.0714286 0
2.58137 0 0
2.81604 0 0
2.58137 0.0714286 0
2.81604 0.0714286 0
2.81604 0 0
3.05071 0 0
2.81604 0.0714286 0
3.05071 0.0714286 0
3.05071 0 0
3.28538 0 0
3.05071 0.0714286 0
3.28538 0.0714286 0
3.28538 0 0
3.52005 0 0
3.28538 0.0714286 0
3.52005 0.0714286 0
3.52005 0 0
3.75472 0 0
3.52005 0.0714286 0
3.75472 0.0714286 0
3.75472 0 0
3.98938 0 0
3.75472 0.0714286 0
3.98938 0.0714286 0
3.98938 0 0
4.22405 0 0
3.98938 0.0714286 0
4.22405 0.0714286 0
4.22405 0 0
4.45872 0 0
4.22405 0.0714286 0
4.45872 0.0714286 0
4.45872 0 0
4.69339 0 0
4.45872 0.0714286 0
4.69339 0.0714286 0
4.69339 0 0
4.92806 0 0
4.69339 0.0714286 0
4.92806 0.0714286 0
4.92806 0 0
5.16273 0 0
4.92806 0.0714286 0
5.16273 0.0714286 0
5.16273 0 0
5.3974 0 0
5.16273 0.0714286 0
5.3974 0.0714286 0
5.3974 0 0
5.63207 0 0
5.3974 0.0714286 0
5.63207 0.0714286 0
-5.63207 0.0714286 0
-5.3974 0.0714286 0
-5.63207 0.142857 0
-5.3974 0.142857 0
-5.3974 0.0714286 0
-5.16273 0.0714286 0
-5.3974 0.142857 0
-5.16273 0.142857 0
-5.16273 0.0714286 0
-4.92806 0.0714286 0
-5.16273 0.142857 0
-4.92806 0.142857 0
-4.92806 0.0714286 0
-4.69339 0.0714286 0
-4.92806 0.142857 0
-4.69339 0.142857 0
-4.69339 0.0714286 0
-4.45872 0.0714286 0
-4.69339 0.142857 0
-4.45872 0.142857 0
-4.45872 0.0714286 0
-4.22405 0.0714286 0
-4.45872 0.142857 0
-4.22405 0.142857 0
-4.22405 0.0714286 0
-3.98938 0.0714286 0
-4.22405 0.142857 0
-3.98938 0.142857 0
-3.98938 0.0714286 0
-3.75472 0.0714286 0
-3.98938 0.142857 0
-3.75472 0.142857 0
-3.75472 0.0714286 0
-3.52005 0.0714286 0
-3.75472 0.142857 0
-3.52005 0.142857 0
-3.52005 0.0714286 0
-3.28538 0.0714286 0
-3.52005 0.142857 0
-3.28538 0.142857 0
-3.28538 0.0714286 0
-3.05071 0.0714286 0
-3.28538 0.142857 0
-3.05071 0.142857 0
-3.05071 0.0714286 0
-2.81604 0.0714286 0
-3.05071 0.142857 0
-2.81604 0.142857 0
-2.81604 0.0714286 0
-2.58137 0.0714286 0
-2.81604 0.142857 0
-2.58137 0.142857 0
-2.58137 0.0714286 0
-2.3467 0.0714286 0
-2.58137 0.142857 0
-2.3467 0.142857 0
-2.3467 0.0714286 0
-2.11203 0.0714286 0
-2.3467 0.142857 0
-2.11203 0.142857 0
-2.11203 0.0714286 0
-1.87736 0.0714286 0
-2.11203 0.142857 0
-1.87736 0.142857 0
-1.87736 0.0714286 0
-1.64269 0.0714286 0
-1.87736 0.142857 0
-1.64269 0.142857 0
-1.64269 0.0714286 0
-1.40802 0.0714286 0
-1.64269 0.142857 0
-1.40802 0.142857 0
-1.40802 0.0714286 0
-1.17335 0.0714286 0
-1.40802 0.142857 0
-1.17335 0.142857 0
-1.17335 0.0714286 0
-0.938679 0.0714286 0
-1.17335 0.142857 0
-0.938679 0.142857 0
-0.938679 0.0714286 0
-0.704009 0.0714286 0
-0.938679 0.142857 0
-0.704009 0.142857 0
-0.704009 0.0714286 0
-0.469339 0.0714286 0
-0.704009 0.142857 0
-0.469339 0.142857 0
-0.469339 0.0714286 0
-0.23467 0.0714286 0
-0.469339 0.142857 0
-0.23467 0.142857 0
-0.23467 0.0714286 0
0 0.0714286 0
-0.23467 0.142857 0
0 0.142857 0
0 0.0714286 0
0.23467 0.0714286 0
0 0.142857 0
0.23467 0.142857 0
0.23467 0.0714286 0
0.469339 0.0714286 0
0.23467 0.142857 0
0.469339 0.142857 0
0.469339 0.0714286 0
0.704009 0.0714286 0
0.469339 0.142857 0
0.704009 0.142857 0
0.704009 0.0714286 0
0.938679 0.0714286 0
0.704009 0.142857 0
0.938679 0.142857 0
0.938679 0.0714286 0
1.17335 0.0714286 0
0.938679 0.142857 0
1.17335 0.142857 0
1.17335 0.0714286 0
1.40802 0.0714286 0
1.17335 0.142857 0
1.40802 0.142857 0
1.40802 0.0714286 0
1.64269 0.0714286 0
1.40802 0.142857 0
1.64269 0.142857 0
1.64269 0.0714286 0
1.87736 0.0714286 0
1.64269 0.142857 0
1.87736 0.142857 0
1.87736 0.0714286 0
2.11203 0.0714286 0
1.87736 0.142857 0
2.11203 0.142857 0
2.11203 0.0714286 0
2.3467 0.0714286 0
2.11203 0.142857 0
2.3467 0.142857 0
2.3467 0.0714286 0
2.58137 0.0714286 0
2.3467 0.142857 0
2.58137 0.142857 0
2.58137 0.0714286 0
2.81604 0.0714286 0
2.58137 0.142857 0
2.81604 0.142857 0
2.81604 0.0714286 0
3.05071 0.0714286 0
2.81604 0.142857 0
3.05071 0.142857 0
3.05071 0.0714286 0
3.28538 0.0714286 0
3.05071 0.142857 0
3.28538 0.142857 0
3.28538 0.0714286 0
3.52005 0.0714286 0
3.28538 0.142857 0
3.52005 0.142857 0
3.52005 0.0714286 0
3.75472 0.0714286 0
3.52005 0.142857 0
3.75472 0.142857 0
3.75472 0.0714286 0
3.98938 0.0714286 0
3.75472 0.142857 0
3.98938 0.142857 0
3.98938 0.0714286 0
4.22405 0.0714286 0
3.98938 0.142857 0
4.22405 0.142857 0
4.22405 0.0714286 0
4.45872 0.0714286 0
4.22405 0.142857 0
4.45872 0.142857 0
4.45872 0.0714286 0
4.69339 0.0714286 0
4.45872 0.142857 0
4.69339 0.142857 0
4.69339 0.0714286 0
4.92806 0.0714286 0
4.69339 0.142857 0
4.92806 0.142857 0
4.92806 0.0714286 0
5.16273 0.0714286 0
4.92806 0.142857 0
5.16273 0.142857 0
5.16273 0.0714286 0
5.3974 0.0714286 0
5.16273 0.142857 0
5.3974 0.142857 0
5.3974 0.0714286 0
5.63207 0.0714286 0
5.3974 0.142857 0
5.63207 0.142857 0
-5.63207 0.142857 0
-5.3974 0.142857 0
-5.63207 0.214286 0
-5.3974 0.214286 0
-5.3974 0.142857 0
-5.16273 0.142857 0
-5.3974 0.214286 0
-5.16273 0.214286 0
-5.16273 0.142857 0
-4.92806 0.142857 0
-5.16273 0.214286 0
-4.92806 0.214286 0
-4.92806 0.142857 0
-4.69339 0.142857 0
-4.92806 0.214286 0
-4.69339 0.214286 0
-4.69339 0.142857 0
-4.45872 0.142857 0
-4.69339 0.214286 0
-4.45872 0.214286 0
-4.45872 0.142857 0
-4.22405 0.142857 0
-4.45872 0.214286 0
-4.22405 0.214286 0
-4.22405 0.142857 0
-3.98938 0.142857 0
-4.22405 0.214286 0
-3.98938 0.214286 0
-3.98938 0.142857 0
-3.75472 0.142857 0
-3.98938 0.214286 0
-3.75472 0.214286 0
-3.75472 0.142857 0
-3.52005 0.142857 0
-3.75472 0.214286 0
-3.52005 0.214286 0
-3.52005 0.142857 0
-3.28538 0.142857 0
-3.52005 0.214286 0
-3.28538 0.214286 0
-3.28538 0.142857 0
-3.05071 0.142857 0
-3.28538 0.214286 0
-3.05071 0.214286 0
-3.05071 0.142857 0
-2.81604 0.142857 0
-3.05071 0.214286 0
-2.81604 0.214286 0
-2.81604 0.142857 0
-2.58137 0.142857 0
-2.81604 0.214286 0
-2.58137 0.214286 0
-2.58137 0.142857 0
-2.3467 0.142857 0
-2.58137 0.214286 0
-2.3467 0.214286 0
-2.3467 0.142857 0
-2.11203 0.142857 0
-2.3467 0.214286 0
-2.11203 0.214286 0
-2.11203 0.142857 0
-1.87736 0.142857 0
-2.11203 0.214286 0
-1.87736 0.214286 0
-1.87736 0.142857 0
-1.64269 0.142857 0
-1.87736 0.214286 0
-1.64269 0.214286 0
-1.64269 0.142857 0
-1.40802 0.142857 0
-1.64269 0.214286 0
-1.40802 0.214286 0
-1.40802 0.142857 0
-1.17335 0.142857 0
-1.40802 0.214286 0
-1.17335 0.214286 0
-1.17335 0.142857 0
-0.938679 0.142857 0
-1.17335 0.214286 0
-0.938679 0.214286 0
-0.938679 0.142857 0
-0.704009 0.142857 0
-0.938679 0.214286 0
-0.704009 0.214286 0
-0.704009 0.142857 0
-0.469339 0.142857 0
-0.704009 0.214286 0
-0.469339 0.214286 0
-0.469339 0.142857 0
-0.23467 0.142857 0
-0.469339 0.214286 0
-0.23467 0.214286 0
-0.23467 0.142857 0
0 0.142857 0
-0.23467 0.214286 0
0 0.214286 0
0 0.142857 0
0.23467 0.142857 0
0 0.214286 0
0.23467 0.214286 0
0.23467 0.142857 0
0.469339 0.142857 0
0.23467 0.214286 0
0.469339 0.214286 0
0.469339 0.142857 0
0.704009 0.142857 0
0.469339 0.214286 0
0.704009 0.214286 0
0.704009 0.142857 0
0.938679 0.142857 0
0.704009 0.214286 0
0.938679 0.214286 0
0.938679 0.142857 0
1.17335 0.142857 0
0.938679 0.214286 0
1.17335 0.214286 0
1.17335 0.142857 0
1.40802 0.142857 0
1.17335 0.214286 0
1.40802 0.214286 0
1.40802 0.142857 0
1.64269 0.142857 0
1.40802 0.214286 0
1.64269 0.214286 0
1.64269 0.142857 0
1.87736 0.142857 0
1.64269 0.214286 0
1.87736 0.214286 0
1.87736 0.142857 0
2.11203 0.142857 0
1.87736 0.214286 0
2.11203 0.214286 0
2.11203 0.142857 0
2.3467 0.142857 0
2.11203 0.214286 0
2.3467 0.214286 0
2.3467 0.142857 0
2.58137 0.142857 0
2.3467 0.214286 0
2.58137 0.214286 0
2.58137 0.142857 0
2.81604 0.142857 0
2.58137 0.214286 0
2.81604 0.214286 0
2.81604 0.142857 0
3.05071 0.142857 0
2.81604 0.214286 0
[...]
POINT_DATA 2688
SCALARS x1_displacement double 1
LOOKUP_TABLE default
2.02034 1.9111 2.02034 1.9113 1.9111 1.80521 1.9113 1.80552 1.80521 1.70663 1.80552 1.70694 1.70663 1.61998 1.70694 1.62019 1.61998 1.54873 1.62019 1.54884 1.54873 1.49077 1.54884 1.49084 1.49077 1.4355 1.49084 1.43552 1.4355 1.37075 1.43552 1.37063 1.37075 1.292 1.37063 1.29171 1.292 1.20177 1.29171 1.20135 1.20177 1.10479 1.20135 1.10434 1.10479 1.00541 1.10434 1.00503 1.00541 0.906953 1.00503 0.906699 0.906953 0.811779 0.906699 0.81166 0.811779 0.721447 0.81166 0.721437 0.721447 0.636662 0.721437 0.636723 0.636662 0.557084 0.636723 0.557181 0.557084 0.481208 0.557181 0.481314 0.481208 0.40666 0.481314 0.406756 0.40666 0.330984 0.406756 0.331057 0.330984 0.252496 0.331057 0.252541 0.252496 0.170689 0.252541 0.17071 0.170689 0.0861135 0.17071 0.0861207 0.0861135 0 0.0861207 0 0 -0.0861135 0 -0.0861207 -0.0861135 -0.170689 -0.0861207 -0.17071 -0.170689 -0.252496 -0.17071 -0.252541 -0.252496 -0.330984 -0.252541 -0.331057 -0.330984 -0.40666 -0.331057 -0.406756 -0.40666 -0.481208 -0.406756 -0.481314 -0.481208 -0.557084 -0.481314 -0.557181 -0.557084 -0.636662 -0.557181 -0.636723 -0.636662 -0.721447 -0.636723 -0.721437 -0.721447 -0.811779 -0.721437 -0.81166 -0.811779 -0.906953 -0.81166 -0.906699 -0.906953 -1.00541 -0.906699 -1.00503 -1.00541 -1.10479 -1.00503 -1.10434 -1.10479 -1.20177 -1.10434 -1.20135 -1.20177 -1.292 -1.20135 -1.29171 -1.292 -1.37075 -1.29171 -1.37063 -1.37075 -1.4355 -1.37063 -1.43552 -1.4355 -1.49077 -1.43552 -1.49084 -1.49077 -1.54873 -1.49084 -1.54884 -1.54873 -1.61998 -1.54884 -1.62019 -1.61998 -1.70663 -1.62019 -1.70694 -1.70663 -1.80521 -1.70694 -1.80552 -1.80521 -1.9111 -1.80552 -1.9113 -1.9111 -2.02034 -1.9113 -2.02034 2.02034 1.9113 2.02034 1.91195 1.9113 1.80552 1.91195 1.80656 1.80552 1.70694 1.80656 1.70795 1.70694 1.62019 1.70795 1.62087 1.62019 1.54884 1.62087 1.54916 1.54884 1.49084 1.54916 1.49102 1.49084 1.43552 1.49102 1.43556 1.43552 1.37063 1.43556 1.37027 1.37063 1.29171 1.37027 1.2908 1.29171 1.20135 1.2908 1.20006 1.20135 1.10434 1.20006 1.103 1.10434 1.00503 1.103 1.00395 1.00503 0.906699 1.00395 0.906021 0.906699 0.81166 0.906021 0.811381 0.81166 0.721437 0.811381 0.721463 0.721437 0.636723 0.721463 0.636934 0.636723 0.557181 0.636934 0.557476 0.557181 0.481314 0.557476 0.48162 0.481314 0.406756 0.48162 0.407021 0.406756 0.331057 0.407021 0.331247 0.331057 0.252541 0.331247 0.252646 0.252541 0.17071 0.252646 0.17075 0.17071 0.0861207 0.17075 0.0861277 0.0861207 0 0.0861277 0 0 -0.0861207 0 -0.0861277 -0.0861207 -0.17071 -0.0861277 -0.17075 -0.17071 -0.252541 -0.17075 -0.252646 -0.252541 -0.331057 -0.252646 -0.331247 -0.331057 -0.406756 -0.331247 -0.407021 -0.406756 -0.481314 -0.407021 -0.48162 -0.481314 -0.557181 -0.48162 -0.557476 -0.557181 -0.636723 -0.557476 -0.636934 -0.636723 -0.721437 -0.636934 -0.721463 -0.721437 -0.81166 -0.721463 -0.811381 -0.81166 -0.906699 -0.811381 -0.906021 -0.906699 -1.00503 -0.906021 -1.00395 -1.00503 -1.10434 -1.00395 -1.103 -1.10434 -1.20135 -1.103 -1.20006 -1.20135 -1.29171 -1.20006 -1.2908 -1.29171 -1.37063 -1.2908 -1.37027 -1.37063 -1.43552 -1.37027 -1.43556 -1.43552 -1.49084 -1.43556 -1.49102 -1.49084 -1.54884 -1.49102 -1.54916 -1.54884 -1.62019 -1.54916 -1.62087 -1.62019 -1.70694 -1.62087 -1.70795 -1.70694 -1.80552 -1.70795 -1.80656 -1.80552 -1.9113 -1.80656 -1.91195 -1.9113 -2.02034 -1.91195 -2.02034 2.02034 1.91195 2.02034 1.91307 1.91195 1.80656 1.91307 1.80835 1.80656 1.70795 1.80835 1.70971 1.70795 1.62087 1.70971 1.62201 1.62087 1.54916 1.62201 1.54967 1.54916 1.49102 1.54967 1.4913 1.49102 1.43556 1.4913 1.43565 1.43556 1.37027 1.43565 1.36967 1.37027 1.2908 1.36967 1.28927 1.2908 1.20006 1.28927 1.19792 1.20006 1.103 1.19792 1.10085 1.103 1.00395 1.10085 1.00226 1.00395 0.906021 1.00226 0.905006 0.906021 0.811381 0.905006 0.811011 0.811381 0.721463 0.811011 0.721566 0.721463 0.636934 0.721566 0.63731 0.636934 0.557476 0.63731 0.557962 0.557476 0.48162 0.557962 0.482107 0.48162 0.407021 0.482107 0.407432 0.407021 0.331247 0.407432 0.331529 0.331247 0.252646 0.331529 0.252788 0.252646 0.17075 0.252788 0.170788 0.17075 0.0861277 0.170788 0.0861235 0.0861277 0 0.0861235 0 0 -0.0861277 0 -0.0861235 -0.0861277 -0.17075 -0.0861235 -0.170788 -0.17075 -0.252646 -0.170788 -0.252788 -0.252646 -0.331247 -0.252788 -0.331529 -0.331247 -0.407021 -0.331529 -0.407432 -0.407021 -0.48162 -0.407432 -0.482107 -0.48162 -0.557476 -0.482107 -0.557962 -0.557476 -0.636934 -0.557962 -0.63731 -0.636934 -0.721463 -0.63731 -0.721566 -0.721463 -0.811381 -0.721566 -0.811011 -0.811381 -0.906021 -0.811011 -0.905006 -0.906021 -1.00395 -0.905006 -1.00226 -1.00395 -1.103 -1.00226 -1.10085 -1.103 -1.20006 -1.10085 -1.19792 -1.20006 -1.2908 -1.19792 -1.28927 -1.2908 -1.37027 -1.28927 -1.36967 -1.37027 -1.43556 -1.36967 -1.43565 -1.43556 -1.49102 -1.43565 -1.4913 -1.49102 -1.54916 -1.4913 -1.54967 -1.54916 -1.62087 -1.54967 -1.62201 -1.62087 -1.70795 -1.62201 -1.70971 -1.70795 -1.80656 -1.70971 -1.80835 -1.80656 -1.91195 -1.80835 -1.91307 -1.91195 -2.02034 -1.91307 -2.02034 2.02034 1.91307 2.02034 1.91473 1.91307 1.80835 1.91473 1.81103 1.80835 1.70971 1.81103 1.71235 1.70971 1.62201 1.71235 1.62373 1.62201 1.54967 1.62373 1.55039 1.54967 1.4913 1.55039 1.49167 1.4913 1.43565 1.49167 1.43575 1.43565 1.36967 1.43575 1.36875 1.36967 1.28927 1.36875 1.28702 1.28927 1.19792 1.28702 1.19488 1.19792 1.10085 1.19488 1.09788 1.10085 1.00226 1.09788 1.00003 1.00226 0.905006 1.00003 0.903755 0.905006 0.811011 0.903755 0.810648 0.811011 0.721566 0.810648 0.721823 0.721566 0.63731 0.721823 0.637896 0.63731 0.557962 0.637896 0.558657 0.557962 0.482107 0.558657 0.482768 0.482107 0.407432 0.482768 0.407962 0.407432 0.331529 0.407962 0.331865 0.331529 0.252788 0.331865 0.252923 0.252788 0.170788 0.252923 0.170786 0.170788 0.0861235 0.170786 0.0860862 0.0861235 0 0.0860862 0 0 -0.0861235 0 -0.0860862 -0.0861235 -0.170788 -0.0860862 -0.170786 -0.170788 -0.252788 -0.170786 -0.252923 -0.252788 -0.331529 -0.252923 -0.331865 -0.331529 -0.407432 -0.331865 -0.407962 -0.407432 -0.482107 -0.407962 -0.482768 -0.482107 -0.557962 -0.482768 -0.558657 -0.557962 -0.63731 -0.558657 -0.637896 -0.63731 -0.721566 -0.637896 -0.721823 -0.721566 -0.811011 -0.721823 -0.810648 -0.811011 -0.905006 -0.810648 -0.903755 -0.905006 -1.00226 -0.903755 -1.00003 -1.00226 -1.10085 -1.00003 -1.09788 -1.10085 -1.19792 -1.09788 -1.19488 -1.19792 -1.28927 -1.19488 -1.28702 -1.28927 -1.36967 -1.28702 -1.36875 -1.36967 -1.43565 -1.36875 -1.43575 -1.43565 -1.4913 -1.43575 -1.49167 -1.4913 -1.54967 -1.49167 -1.55039 -1.54967 -1.62201 -1.55039 -1.62373 -1.62201 -1.70971 -1.62373 -1.71235 -1.70971 -1.80835 -1.71235 -1.81103 -1.80835 -1.91307 -1.81103 -1.91473 -1.91307 -2.02034 -1.91473 -2.02034 2.02034 1.91473 2.02034 1.91702 1.91473 1.81103 1.91702 1.81477 1.81103 1.71235 1.81477 1.71613 1.71235 1.62373 1.71613 1.62624 1.62373 1.55039 1.62624 1.55143 1.55039 1.49167 1.55143 1.49213 1.49167 1.43575 1.49213 1.43579 1.43575 1.36875 1.43579 1.36734 1.36875 1.28702 1.36734 1.28386 1.28702 1.19488 1.28386 1.19081 1.19488 1.09788 1.19081 1.0941 1.09788 1.00003 1.0941 0.997332 1.00003 0.903755 0.997332 0.902386 0.903755 0.810648 0.902386 0.810418 0.810648 0.721823 0.810418 0.722342 0.721823 0.637896 0.722342 0.638771 0.637896 0.558657 0.638771 0.559598 0.558657 0.482768 0.559598 0.483603 0.482768 0.407962 0.483603 0.408579 0.407962 0.331865 0.408579 0.332199 0.331865 0.252923 0.332199 0.252988 0.252923 0.170786 0.252988 0.170691 0.170786 0.0860862 0.170691 0.0859846 0.0860862 0 0.0859846 0 0 -0.0860862 0 -0.0859846 -0.0860862 -0.170786 -0.0859846 -0.170691 -0.170786 -0.252923 -0.170691 -0.252988 -0.252923 -0.331865 -0.252988 -0.332199 -0.331865 -0.407962 -0.332199 -0.408579 -0.407962 -0.482768 -0.408579 -0.483603 -0.482768 -0.558657 -0.483603 -0.559598 -0.558657 -0.637896 -0.559598 -0.638771 -0.637896 -0.721823 -0.638771 -0.722342 -0.721823 -0.810648 -0.722342 -0.810418 -0.810648 -0.903755 -0.810418 -0.902386 -0.903755 -1.00003 -0.902386 -0.997332 -1.00003 -1.09788 -0.997332 -1.0941 -1.09788 -1.19488 -1.0941 -1.19081 -1.19488 -1.28702 -1.19081 -1.28386 -1.28702 -1.36875 -1.28386 -1.36734 -1.36875 -1.43575 -1.36734 -1.43579 -1.43575 -1.49167 -1.43579 -1.49213 -1.49167 -1.55039 -1.49213 -1.55143 -1.55039 -1.62373 -1.55143 -1.62624 -1.62373 -1.71235 -1.62624 -1.71613 -1.71235 -1.81103 -1.71613 -1.81477 -1.81103 -1.91473 -1.81477 -1.91702 -1.91473 -2.02034 -1.91702 -2.02034 2.02034 1.91702 2.02034 1.92003 1.91702 1.81477 1.92003 1.8198 1.81477 1.71613 1.8198 1.72136 1.71613 1.62624 1.72136 1.62984 1.62624 1.55143 1.62984 1.55293 1.55143 1.49213 1.55293 1.49271 1.49213 1.43579 1.49271 1.43567 1.43579 1.36734 1.43567 1.3652 1.36734 1.28386 1.3652 1.2795 1.28386 1.19081 1.2795 1.18554 1.19081 1.0941 1.18554 1.08948 1.0941 0.997332 1.08948 0.994262 0.997332 0.902386 0.994262 0.901039 0.902386 0.810418 0.901039 0.810471 0.810418 0.722342 0.810471 0.723261 0.722342 0.638771 0.723261 0.640036 0.638771 0.559598 0.640036 0.560843 0.559598 0.483603 0.560843 0.484619 0.483603 0.408579 0.484619 0.409247 0.408579 0.332199 0.409247 0.332462 0.332199 0.252988 0.332462 0.252901 0.252988 0.170691 0.252901 0.170432 0.170691 0.0859846 0.170432 0.0857785 0.0859846 0 0.0857785 0 0 -0.0859846 0 -0.0857785 -0.0859846 -0.170691 -0.0857785 -0.170432 -0.170691 -0.252988 -0.170432 -0.252901 -0.252988 -0.332199 -0.252901 -0.332462 -0.332199 -0.408579 -0.332462 -0.409247 -0.408579 -0.483603 -0.409247 -0.484619 -0.483603 -0.559598 -0.484619 -0.560843 -0.559598 -0.638771 -0.560843 -0.640036 -0.638771 -0.722342 -0.640036 -0.723261 -0.722342 -0.810418 -0.723261 -0.810471 -0.810418 -0.902386 -0.810471 -0.901039 -0.902386 -0.997332 -0.901039 -0.994262 -0.997332 -1.0941 -0.994262 -1.08948 -1.0941 -1.19081 -1.08948 -1.18554 -1.19081 -1.28386 -1.18554 -1.2795 -1.28386 -1.36734 -1.2795 -1.3652 -1.36734 -1.43579 -1.3652 -1.43567 -1.43579 -1.49213 -1.43567 -1.49271 -1.49213 -1.55143 -1.49271 -1.55293 -1.55143 -1.62624 -1.55293 -1.62984 -1.62624 -1.71613 -1.62984 -1.72136 -1.71613 -1.81477 -1.72136 -1.8198 -1.81477 -1.91702 -1.8198 -1.92003 -1.91702 -2.02034 -1.92003 -2.02034 2.02034 1.92003 2.02034 1.92385 1.92003 1.8198 1.92385 1.82635 1.8198 1.72136 1.82635 1.72846 1.72136 1.62984 1.72846 1.63497 1.62984 1.55293 1.63497 1.55513 1.55293 1.49271 1.55513 1.49341 1.49271 1.43567 1.49341 1.43522 1.43567 1.3652 1.43522 1.36196 1.3652 1.2795 1.36196 1.27357 1.2795 1.18554 1.27357 1.17888 1.18554 1.08948 1.17888 1.084 1.08948 0.994262 1.084 0.990922 0.994262 0.901039 0.990922 0.899873 0.901039 0.810471 0.899873 0.810984 0.810471 0.723261 0.810984 0.724743 0.723261 0.640036 0.724743 0.641821 0.640036 0.560843 0.641821 0.562466 0.560843 0.484619 0.562466 0.485828 0.484619 0.409247 0.485828 0.409918 0.409247 0.332462 0.409918 0.332567 0.332462 0.252901 0.332567 0.25256 0.252901 0.170432 0.25256 0.169922 0.170432 0.0857785 0.169922 0.0854187 0.0857785 0 0.0854187 0 0 -0.0857785 0 -0.0854187 -0.0857785 -0.170432 -0.0854187 -0.169922 -0.170432 -0.252901 -0.169922 -0.25256 -0.252901 -0.332462 -0.25256 -0.332567 -0.332462 -0.409247 -0.332567 -0.409918 -0.409247 -0.484619 -0.409918 -0.485828 -0.484619 -0.560843 -0.485828 -0.562466 -0.560843 -0.640036 -0.562466 -0.641821 -0.640036 -0.723261 -0.641821 -0.724743 -0.723261 -0.810471 -0.724743 -0.810984 -0.810471 -0.901039 -0.810984 -0.899873 -0.901039 -0.994262 -0.899873 -0.990922 -0.994262 -1.08948 -0.990922 -1.084 -1.08948 -1.18554 -1.084 -1.17888 -1.18554 -1.2795 -1.17888 -1.27357 -1.2795 -1.3652 -1.27357 -1.36196 -1.3652 -1.43567 -1.36196 -1.43522 -1.43567 -1.49271 -1.43522 -1.49341 -1.49271 -1.55293 -1.49341 -1.55513 -1.55293 -1.62984 -1.55513 -1.63497 -1.62984 -1.72136 -1.63497 -1.72846 -1.72136 -1.8198 -1.72846 -1.82635 -1.8198 -1.92003 -1.82635 -1.92385 -1.92003 -2.02034 -1.92385 -2.02034 2.02034 1.92385 2.02034 1.92854 1.92385 1.82635 1.92854 1.83466 1.82635 1.72846 1.83466 1.73792 1.72846 1.63497 1.73792 1.6422 1.63497 1.55513 1.6422 1.55837 1.55513 1.49341 1.55837 1.49427 1.49341 1.43522 1.49427 1.4342 1.43522 1.36196 1.4342 1.3571 1.36196 1.27357 1.3571 1.2656 1.27357 1.17888 1.2656 1.17062 1.17888 1.084 1.17062 1.0777 1.084 0.990922 1.0777 0.987447 0.990922 0.899873 0.987447 0.899069 0.899873 0.810984 0.899069 0.812155 0.810984 0.724743 0.812155 0.726983 0.724743 0.641821 0.726983 0.644282 0.641821 0.562466 0.644282 0.564558 0.562466 0.485828 0.564558 0.487243 0.485828 0.409918 0.487243 0.410533 0.409918 0.332567 0.410533 0.332402 0.332567 0.25256 0.332402 0.251839 0.25256 0.169922 0.251839 0.169056 0.169922 0.0854187 0.169056 0.0848473 0.0854187 0 0.0848473 0 0 -0.0854187 0 -0.0848473 -0.0854187 -0.169922 -0.0848473 -0.169056 -0.169922 -0.25256 -0.169056 -0.251839 -0.25256 -0.332567 -0.251839 -0.332402 -0.332567 -0.409918 -0.332402 -0.410533 -0.409918 -0.485828 -0.410533 -0.487243 -0.485828 -0.562466 -0.487243 -0.564558 -0.562466 -0.641821 -0.564558 -0.644282 -0.641821 -0.724743 -0.644282 -0.726983 -0.724743 -0.810984 -0.726983 -0.812155 -0.810984 -0.899873 -0.812155 -0.899069 -0.899873 -0.990922 -0.899069 -0.987447 -0.990922 -1.084 -0.987447 -1.0777 -1.084 -1.17888 -1.0777 -1.17062 -1.17888 -1.27357 -1.17062 -1.2656 -1.27357 -1.36196 -1.2656 -1.3571 -1.36196 -1.43522 -1.3571 -1.4342 -1.43522 -1.49341 -1.4342 -1.49427 -1.49341 -1.55513 -1.49427 -1.55837 -1.55513 -1.63497 -1.55837 -1.6422 -1.63497 -1.72846 -1.6422 -1.73792 -1.72846 -1.82635 -1.73792 -1.83466 -1.82635 -1.92385 -1.83466 -1.92854 -1.92385 -2.02034 -1.92854 -2.02034 2.02034 1.92854 2.02034 1.9341 1.92854 1.83466 1.9341 1.84487 1.83466 1.73792 1.84487 1.75025 1.73792 1.6422 1.75025 1.65233 1.6422 1.55837 1.65233 1.56316 1.55837 1.49427 1.56316 1.49533 1.49427 1.4342 1.49533 1.43225 1.4342 1.3571 1.43225 1.34991 1.3571 1.2656 1.34991 1.25502 1.2656 1.17062 1.25502 1.16058 1.17062 1.0777 1.16058 1.07065 1.0777 0.987447 1.07065 0.984004 0.987447 0.899069 0.984004 0.898825 0.899069 0.812155 0.898825 0.8142 0.812155 0.726983 0.8142 0.730198 0.726983 0.644282 0.730198 0.647609 0.644282 0.564558 0.647609 0.567236 0.564558 0.487243 0.567236 0.488883 0.487243 0.410533 0.488883 0.411015 0.410533 0.332402 0.411015 0.331825 0.332402 0.251839 0.331825 0.250581 0.251839 0.169056 0.250581 0.16771 0.169056 0.0848473 0.16771 0.0839985 0.0848473 0 0.0839985 0 0 -0.0848473 0 -0.0839985 -0.0848473 -0.169056 -0.0839985 -0.16771 -0.169056 -0.251839 -0.16771 -0.250581 -0.251839 -0.332402 -0.250581 -0.331825 -0.332402 -0.410533 -0.331825 -0.411015 -0.410533 -0.487243 -0.411015 -0.488883 -0.487243 -0.564558 -0.488883 -0.567236 -0.564558 -0.644282 -0.567236 -0.647609 -0.644282 -0.726983 -0.647609 -0.730198 -0.726983 -0.812155 -0.730198 -0.8142 -0.812155 -0.899069 -0.8142 -0.898825 -0.899069 -0.987447 -0.898825 -0.984004 -0.987447 -1.0777 -0.984004 -1.07065 -1.0777 -1.17062 -1.07065 -1.16058 -1.17062 -1.2656 -1.16058 -1.25502 -1.2656 -1.3571 -1.25502 -1.34991 -1.3571 -1.4342 -1.34991 -1.43225 -1.4342 -1.49427 -1.43225 -1.49533 -1.49427 -1.55837 -1.49533 -1.56316 -1.55837 -1.6422 -1.56316 -1.65233 -1.6422 -1.73792 -1.65233 -1.75025 -1.73792 -1.83466 -1.75025 -1.84487 -1.83466 -1.92854 -1.84487 -1.9341 -1.92854 -2.02034 -1.9341 -2.02034 2.02034 1.9341 2.02034 1.94048 1.9341 1.84487 1.94048 1.85702 1.84487 1.75025 1.85702 1.76595 1.75025 1.65233 1.76595 1.66637 1.65233 1.56316 1.66637 1.57028 1.56316 1.49533 1.57028 1.49666 1.49533 1.43225 1.49666 1.42874 1.43225 1.34991 1.42874 1.33936 1.34991 1.25502 1.33936 1.24122 1.25502 1.16058 1.24122 1.1487 1.16058 1.07065 1.1487 1.06301 1.07065 0.984004 1.06301 0.980789 0.984004 0.898825 0.980789 0.89935 0.898825 0.8142 0.89935 0.817353 0.8142 0.730198 0.817353 0.734641 0.730198 0.647609 0.734641 0.652029 0.647609 0.567236 0.652029 0.570645 0.567236 0.488883 0.570645 0.490768 0.488883 0.411015 0.490768 0.411256 0.411015 0.331825 0.411256 0.330652 0.331825 0.250581 0.330652 0.248595 0.250581 0.16771 0.248595 0.165741 0.16771 0.0839985 0.165741 0.0827999 0.0839985 0 0.0827999 0 0 -0.0839985 0 -0.0827999 -0.0839985 -0.16771 -0.0827999 -0.165741 -0.16771 -0.250581 -0.165741 -0.248595 -0.250581 -0.331825 -0.248595 -0.330652 -0.331825 -0.411015 -0.330652 -0.411256 -0.411015 -0.488883 -0.411256 -0.490768 -0.488883 -0.567236 -0.490768 -0.570645 -0.567236 -0.647609 -0.570645 -0.652029 -0.647609 -0.730198 -0.652029 -0.734641 -0.730198 -0.8142 -0.734641 -0.817353 -0.8142 -0.898825 -0.817353 -0.89935 -0.898825 -0.984004 -0.89935 -0.980789 -0.984004 -1.07065 -0.980789 -1.06301 -1.07065 -1.16058 -1.06301 -1.1487 -1.16058 -1.25502 -1.1487 -1.24122 -1.25502 -1.34991 -1.24122 -1.33936 -1.34991 -1.43225 -1.33936 -1.42874 -1.43225 -1.49533 -1.42874 -1.49666 -1.49533 -1.56316 -1.49666 -1.57028 -1.56316 -1.65233 -1.57028 -1.66637 -1.65233 -1.75025 -1.66637 -1.76595 -1.75025 -1.84487 -1.76595 -1.85702 -1.84487 -1.9341 -1.85702 -1.94048 -1.9341 -2.02034 -1.94048 -2.02034 2.02034 1.94048 2.02034 1.94754 1.94048 1.85702 1.94754 1.87093 1.85702 1.76595 1.87093 1.78534 1.76595 1.66637 1.78534 1.68567 1.66637 1.57028 1.68567 1.58102 1.57028 1.49666 1.58102 1.49839 1.49666 1.42874 1.49839 1.42266 1.42874 1.33936 1.42266 1.32399 1.33936 1.24122 1.32399 1.22364 1.24122 1.1487 1.22364 1.13513 1.1487 1.06301 1.13513 1.05501 1.06301 0.980789 1.05501 0.978016 0.980789 0.89935 0.978016 0.900859 0.89935 0.817353 0.900859 0.821853 0.817353 0.734641 0.821853 0.740589 0.734641 0.652029 0.740589 0.657822 0.652029 0.570645 0.657822 0.574976 0.570645 0.490768 0.574976 0.492919 0.490768 0.411256 0.492919 0.411112 0.411256 0.330652 0.411112 0.328642 0.330652 0.248595 0.328642 0.245649 0.248595 0.165741 0.245649 0.162991 0.165741 0.0827999 0.162991 0.0811762 0.0827999 0 0.0811762 0 0 -0.0827999 0 -0.0811762 -0.0827999 -0.165741 -0.0811762 -0.162991 -0.165741 -0.248595 -0.162991 -0.245649 -0.248595 -0.330652 -0.245649 -0.328642 -0.330652 -0.411256 -0.328642 -0.411112 -0.411256 -0.490768 -0.411112 -0.492919 -0.490768 -0.570645 -0.492919 -0.574976 -0.570645 -0.652029 -0.574976 -0.657822 -0.652029 -0.734641 -0.657822 -0.740589 -0.734641 -0.817353 -0.740589 -0.821853 -0.817353 -0.89935 -0.821853 -0.900859 -0.89935 -0.980789 -0.900859 -0.978016 -0.980789 -1.06301 -0.978016 -1.05501 -1.06301 -1.1487 -1.05501 -1.13513 -1.1487 -1.24122 -1.13513 -1.22364 -1.24122 -1.33936 -1.22364 -1.32399 -1.33936 -1.42874 -1.32399 -1.42266 -1.42874 -1.49666 -1.42266 -1.49839 -1.49666 -1.57028 -1.49839 -1.58102 -1.57028 -1.66637 -1.58102 -1.68567 -1.66637 -1.76595 -1.68567 -1.78534 -1.76595 -1.85702 -1.78534 -1.87093 -1.85702 -1.94048 -1.87093 -1.94754 -1.94048 -2.02034 -1.94754 -2.02034 2.02034 1.94754 2.02034 1.95515 1.94754 1.87093 1.95515 1.88623 1.87093 1.78534 1.88623 1.80823 1.78534 1.68567 1.80823 1.71187 1.68567 1.58102 1.71187 1.59758 1.58102 1.49839 1.59758 1.50077 1.49839 1.42266 1.50077 1.41214 1.42266 1.32399 1.41214 1.30176 1.32399 1.22364 1.30176 1.20212 1.22364 1.13513 1.20212 1.12025 1.13513 1.05501 1.12025 1.04694 1.05501 0.978016 1.04694 0.975912 0.978016 0.900859 0.975912 0.903558 0.900859 0.821853 0.903558 0.827937 0.821853 0.740589 0.827937 0.748351 0.740589 0.657822 0.748351 0.665335 0.657822 0.574976 0.665335 0.580484 0.574976 0.492919 0.580484 0.495367 0.492919 0.411112 0.495367 0.410371 0.411112 0.328642 0.410371 0.325476 0.328642 0.245649 0.325476 0.241466 0.245649 0.162991 0.241466 0.159289 0.162991 0.0811762 0.159289 0.0790535 0.0811762 0 0.0790535 0 0 -0.0811762 0 -0.0790535 -0.0811762 -0.162991 -0.0790535 -0.159289 -0.162991 -0.245649 -0.159289 -0.241466 -0.245649 -0.328642 -0.241466 -0.325476 -0.328642 -0.411112 -0.325476 -0.410371 -0.411112 -0.492919 -0.410371 -0.495367 -0.492919 -0.574976 -0.495367 -0.580484 -0.574976 -0.657822 -0.580484 -0.665335 -0.657822 -0.740589 -0.665335 -0.748351 -0.740589 -0.821853 -0.748351 -0.827937 -0.821853 -0.900859 -0.827937 -0.903558 -0.900859 -0.978016 -0.903558 -0.975912 -0.978016 -1.05501 -0.975912 -1.04694 -1.05501 -1.13513 -1.04694 -1.12025 -1.13513 -1.22364 -1.12025 -1.20212 -1.22364 -1.32