# vtk DataFile Version 3.0
#This file was generated by the deal.II library on 2017/9/27 at 13:19:14
ASCII
DATASET UNSTRUCTURED_GRID

POINTS 2688 double
-5.63207 0 0
-5.3974 0 0
-5.63207 0.0714286 0
-5.3974 0.0714286 0
-5.3974 0 0
-5.16273 0 0
-5.3974 0.0714286 0
-5.16273 0.0714286 0
-5.16273 0 0
-4.92806 0 0
-5.16273 0.0714286 0
-4.92806 0.0714286 0
-4.92806 0 0
-4.69339 0 0
-4.92806 0.0714286 0
-4.69339 0.0714286 0
-4.69339 0 0
-4.45872 0 0
-4.69339 0.0714286 0
-4.45872 0.0714286 0
-4.45872 0 0
-4.22405 0 0
-4.45872 0.0714286 0
-4.22405 0.0714286 0
-4.22405 0 0
-3.98938 0 0
-4.22405 0.0714286 0
-3.98938 0.0714286 0
-3.98938 0 0
-3.75472 0 0
-3.98938 0.0714286 0
-3.75472 0.0714286 0
-3.75472 0 0
-3.52005 0 0
-3.75472 0.0714286 0
-3.52005 0.0714286 0
-3.52005 0 0
-3.28538 0 0
-3.52005 0.0714286 0
-3.28538 0.0714286 0
-3.28538 0 0
-3.05071 0 0
-3.28538 0.0714286 0
-3.05071 0.0714286 0
-3.05071 0 0
-2.81604 0 0
-3.05071 0.0714286 0
-2.81604 0.0714286 0
-2.81604 0 0
-2.58137 0 0
-2.81604 0.0714286 0
-2.58137 0.0714286 0
-2.58137 0 0
-2.3467 0 0
-2.58137 0.0714286 0
-2.3467 0.0714286 0
-2.3467 0 0
-2.11203 0 0
-2.3467 0.0714286 0
-2.11203 0.0714286 0
-2.11203 0 0
-1.87736 0 0
-2.11203 0.0714286 0
-1.87736 0.0714286 0
-1.87736 0 0
-1.64269 0 0
-1.87736 0.0714286 0
-1.64269 0.0714286 0
-1.64269 0 0
-1.40802 0 0
-1.64269 0.0714286 0
-1.40802 0.0714286 0
-1.40802 0 0
-1.17335 0 0
-1.40802 0.0714286 0
-1.17335 0.0714286 0
-1.17335 0 0
-0.938679 0 0
-1.17335 0.0714286 0
-0.938679 0.0714286 0
-0.938679 0 0
-0.704009 0 0
-0.938679 0.0714286 0
-0.704009 0.0714286 0
-0.704009 0 0
-0.469339 0 0
-0.704009 0.0714286 0
-0.469339 0.0714286 0
-0.469339 0 0
-0.23467 0 0
-0.469339 0.0714286 0
-0.23467 0.0714286 0
-0.23467 0 0
0 0 0
-0.23467 0.0714286 0
0 0.0714286 0
0 0 0
0.23467 0 0
0 0.0714286 0
0.23467 0.0714286 0
0.23467 0 0
0.469339 0 0
0.23467 0.0714286 0
0.469339 0.0714286 0
0.469339 0 0
0.704009 0 0
0.469339 0.0714286 0
0.704009 0.0714286 0
0.704009 0 0
0.938679 0 0
0.704009 0.0714286 0
0.938679 0.0714286 0
0.938679 0 0
1.17335 0 0
0.938679 0.0714286 0
1.17335 0.0714286 0
1.17335 0 0
1.40802 0 0
1.17335 0.0714286 0
1.40802 0.0714286 0
1.40802 0 0
1.64269 0 0
1.40802 0.0714286 0
1.64269 0.0714286 0
1.64269 0 0
1.87736 0 0
1.64269 0.0714286 0
1.87736 0.0714286 0
1.87736 0 0
2.11203 0 0
1.87736 0.0714286 0
2.11203 0.0714286 0
2.11203 0 0
2.3467 0 0
2.11203 0.0714286 0
2.3467 0.0714286 0
2.3467 0 0
2.58137 0 0
2.3467 0.0714286 0
2.58137 0.0714286 0
2.58137 0 0
2.81604 0 0
2.58137 0.0714286 0
2.81604 0.0714286 0
2.81604 0 0
3.05071 0 0
2.81604 0.0714286 0
3.05071 0.0714286 0
3.05071 0 0
3.28538 0 0
3.05071 0.0714286 0
3.28538 0.0714286 0
3.28538 0 0
3.52005 0 0
3.28538 0.0714286 0
3.52005 0.0714286 0
3.52005 0 0
3.75472 0 0
3.52005 0.0714286 0
3.75472 0.0714286 0
3.75472 0 0
3.98938 0 0
3.75472 0.0714286 0
3.98938 0.0714286 0
3.98938 0 0
4.22405 0 0
3.98938 0.0714286 0
4.22405 0.0714286 0
4.22405 0 0
4.45872 0 0
4.22405 0.0714286 0
4.45872 0.0714286 0
4.45872 0 0
4.69339 0 0
4.45872 0.0714286 0
4.69339 0.0714286 0
4.69339 0 0
4.92806 0 0
4.69339 0.0714286 0
4.92806 0.0714286 0
4.92806 0 0
5.16273 0 0
4.92806 0.0714286 0
5.16273 0.0714286 0
5.16273 0 0
5.3974 0 0
5.16273 0.0714286 0
5.3974 0.0714286 0
5.3974 0 0
5.63207 0 0
5.3974 0.0714286 0
5.63207 0.0714286 0
-5.63207 0.0714286 0
-5.3974 0.0714286 0
-5.63207 0.142857 0
-5.3974 0.142857 0
-5.3974 0.0714286 0
-5.16273 0.0714286 0
-5.3974 0.142857 0
-5.16273 0.142857 0
-5.16273 0.0714286 0
-4.92806 0.0714286 0
-5.16273 0.142857 0
-4.92806 0.142857 0
-4.92806 0.0714286 0
-4.69339 0.0714286 0
-4.92806 0.142857 0
-4.69339 0.142857 0
-4.69339 0.0714286 0
-4.45872 0.0714286 0
-4.69339 0.142857 0
-4.45872 0.142857 0
-4.45872 0.0714286 0
-4.22405 0.0714286 0
-4.45872 0.142857 0
-4.22405 0.142857 0
-4.22405 0.0714286 0
-3.98938 0.0714286 0
-4.22405 0.142857 0
-3.98938 0.142857 0
-3.98938 0.0714286 0
-3.75472 0.0714286 0
-3.98938 0.142857 0
-3.75472 0.142857 0
-3.75472 0.0714286 0
-3.52005 0.0714286 0
-3.75472 0.142857 0
-3.52005 0.142857 0
-3.52005 0.0714286 0
-3.28538 0.0714286 0
-3.52005 0.142857 0
-3.28538 0.142857 0
-3.28538 0.0714286 0
-3.05071 0.0714286 0
-3.28538 0.142857 0
-3.05071 0.142857 0
-3.05071 0.0714286 0
-2.81604 0.0714286 0
-3.05071 0.142857 0
-2.81604 0.142857 0
-2.81604 0.0714286 0
-2.58137 0.0714286 0
-2.81604 0.142857 0
-2.58137 0.142857 0
-2.58137 0.0714286 0
-2.3467 0.0714286 0
-2.58137 0.142857 0
-2.3467 0.142857 0
-2.3467 0.0714286 0
-2.11203 0.0714286 0
-2.3467 0.142857 0
-2.11203 0.142857 0
-2.11203 0.0714286 0
-1.87736 0.0714286 0
-2.11203 0.142857 0
-1.87736 0.142857 0
-1.87736 0.0714286 0
-1.64269 0.0714286 0
-1.87736 0.142857 0
-1.64269 0.142857 0
-1.64269 0.0714286 0
-1.40802 0.0714286 0
-1.64269 0.142857 0
-1.40802 0.142857 0
-1.40802 0.0714286 0
-1.17335 0.0714286 0
-1.40802 0.142857 0
-1.17335 0.142857 0
-1.17335 0.0714286 0
-0.938679 0.0714286 0
-1.17335 0.142857 0
-0.938679 0.142857 0
-0.938679 0.0714286 0
-0.704009 0.0714286 0
-0.938679 0.142857 0
-0.704009 0.142857 0
-0.704009 0.0714286 0
-0.469339 0.0714286 0
-0.704009 0.142857 0
-0.469339 0.142857 0
-0.469339 0.0714286 0
-0.23467 0.0714286 0
-0.469339 0.142857 0
-0.23467 0.142857 0
-0.23467 0.0714286 0
0 0.0714286 0
-0.23467 0.142857 0
0 0.142857 0
0 0.0714286 0
0.23467 0.0714286 0
0 0.142857 0
0.23467 0.142857 0
0.23467 0.0714286 0
0.469339 0.0714286 0
0.23467 0.142857 0
0.469339 0.142857 0
0.469339 0.0714286 0
0.704009 0.0714286 0
0.469339 0.142857 0
0.704009 0.142857 0
0.704009 0.0714286 0
0.938679 0.0714286 0
0.704009 0.142857 0
0.938679 0.142857 0
0.938679 0.0714286 0
1.17335 0.0714286 0
0.938679 0.142857 0
1.17335 0.142857 0
1.17335 0.0714286 0
1.40802 0.0714286 0
1.17335 0.142857 0
1.40802 0.142857 0
1.40802 0.0714286 0
1.64269 0.0714286 0
1.40802 0.142857 0
1.64269 0.142857 0
1.64269 0.0714286 0
1.87736 0.0714286 0
1.64269 0.142857 0
1.87736 0.142857 0
1.87736 0.0714286 0
2.11203 0.0714286 0
1.87736 0.142857 0
2.11203 0.142857 0
2.11203 0.0714286 0
2.3467 0.0714286 0
2.11203 0.142857 0
2.3467 0.142857 0
2.3467 0.0714286 0
2.58137 0.0714286 0
2.3467 0.142857 0
2.58137 0.142857 0
2.58137 0.0714286 0
2.81604 0.0714286 0
2.58137 0.142857 0
2.81604 0.142857 0
2.81604 0.0714286 0
3.05071 0.0714286 0
2.81604 0.142857 0
3.05071 0.142857 0
3.05071 0.0714286 0
3.28538 0.0714286 0
3.05071 0.142857 0
3.28538 0.142857 0
3.28538 0.0714286 0
3.52005 0.0714286 0
3.28538 0.142857 0
3.52005 0.142857 0
3.52005 0.0714286 0
3.75472 0.0714286 0
3.52005 0.142857 0
3.75472 0.142857 0
3.75472 0.0714286 0
3.98938 0.0714286 0
3.75472 0.142857 0
3.98938 0.142857 0
3.98938 0.0714286 0
4.22405 0.0714286 0
3.98938 0.142857 0
4.22405 0.142857 0
4.22405 0.0714286 0
4.45872 0.0714286 0
4.22405 0.142857 0
4.45872 0.142857 0
4.45872 0.0714286 0
4.69339 0.0714286 0
4.45872 0.142857 0
4.69339 0.142857 0
4.69339 0.0714286 0
4.92806 0.0714286 0
4.69339 0.142857 0
4.92806 0.142857 0
4.92806 0.0714286 0
5.16273 0.0714286 0
4.92806 0.142857 0
5.16273 0.142857 0
5.16273 0.0714286 0
5.3974 0.0714286 0
5.16273 0.142857 0
5.3974 0.142857 0
5.3974 0.0714286 0
5.63207 0.0714286 0
5.3974 0.142857 0
5.63207 0.142857 0
-5.63207 0.142857 0
-5.3974 0.142857 0
-5.63207 0.214286 0
-5.3974 0.214286 0
-5.3974 0.142857 0
-5.16273 0.142857 0
-5.3974 0.214286 0
-5.16273 0.214286 0
-5.16273 0.142857 0
-4.92806 0.142857 0
-5.16273 0.214286 0
-4.92806 0.214286 0
-4.92806 0.142857 0
-4.69339 0.142857 0
-4.92806 0.214286 0
-4.69339 0.214286 0
-4.69339 0.142857 0
-4.45872 0.142857 0
-4.69339 0.214286 0
-4.45872 0.214286 0
-4.45872 0.142857 0
-4.22405 0.142857 0
-4.45872 0.214286 0
-4.22405 0.214286 0
-4.22405 0.142857 0
-3.98938 0.142857 0
-4.22405 0.214286 0
-3.98938 0.214286 0
-3.98938 0.142857 0
-3.75472 0.142857 0
-3.98938 0.214286 0
-3.75472 0.214286 0
-3.75472 0.142857 0
-3.52005 0.142857 0
-3.75472 0.214286 0
-3.52005 0.214286 0
-3.52005 0.142857 0
-3.28538 0.142857 0
-3.52005 0.214286 0
-3.28538 0.214286 0
-3.28538 0.142857 0
-3.05071 0.142857 0
-3.28538 0.214286 0
-3.05071 0.214286 0
-3.05071 0.142857 0
-2.81604 0.142857 0
-3.05071 0.214286 0
-2.81604 0.214286 0
-2.81604 0.142857 0
-2.58137 0.142857 0
-2.81604 0.214286 0
-2.58137 0.214286 0
-2.58137 0.142857 0
-2.3467 0.142857 0
-2.58137 0.214286 0
-2.3467 0.214286 0
-2.3467 0.142857 0
-2.11203 0.142857 0
-2.3467 0.214286 0
-2.11203 0.214286 0
-2.11203 0.142857 0
-1.87736 0.142857 0
-2.11203 0.214286 0
-1.87736 0.214286 0
-1.87736 0.142857 0
-1.64269 0.142857 0
-1.87736 0.214286 0
-1.64269 0.214286 0
-1.64269 0.142857 0
-1.40802 0.142857 0
-1.64269 0.214286 0
-1.40802 0.214286 0
-1.40802 0.142857 0
-1.17335 0.142857 0
-1.40802 0.214286 0
-1.17335 0.214286 0
-1.17335 0.142857 0
-0.938679 0.142857 0
-1.17335 0.214286 0
-0.938679 0.214286 0
-0.938679 0.142857 0
-0.704009 0.142857 0
-0.938679 0.214286 0
-0.704009 0.214286 0
-0.704009 0.142857 0
-0.469339 0.142857 0
-0.704009 0.214286 0
-0.469339 0.214286 0
-0.469339 0.142857 0
-0.23467 0.142857 0
-0.469339 0.214286 0
-0.23467 0.214286 0
-0.23467 0.142857 0
0 0.142857 0
-0.23467 0.214286 0
0 0.214286 0
0 0.142857 0
0.23467 0.142857 0
0 0.214286 0
0.23467 0.214286 0
0.23467 0.142857 0
0.469339 0.142857 0
0.23467 0.214286 0
0.469339 0.214286 0
0.469339 0.142857 0
0.704009 0.142857 0
0.469339 0.214286 0
0.704009 0.214286 0
0.704009 0.142857 0
0.938679 0.142857 0
0.704009 0.214286 0
0.938679 0.214286 0
0.938679 0.142857 0
1.17335 0.142857 0
0.938679 0.214286 0
1.17335 0.214286 0
1.17335 0.142857 0
1.40802 0.142857 0
1.17335 0.214286 0
1.40802 0.214286 0
1.40802 0.142857 0
1.64269 0.142857 0
1.40802 0.214286 0
1.64269 0.214286 0
1.64269 0.142857 0
1.87736 0.142857 0
1.64269 0.214286 0
1.87736 0.214286 0
1.87736 0.142857 0
2.11203 0.142857 0
1.87736 0.214286 0
2.11203 0.214286 0
2.11203 0.142857 0
2.3467 0.142857 0
2.11203 0.214286 0
2.3467 0.214286 0
2.3467 0.142857 0
2.58137 0.142857 0
2.3467 0.214286 0
2.58137 0.214286 0
2.58137 0.142857 0
2.81604 0.142857 0
2.58137 0.214286 0
2.81604 0.214286 0
2.81604 0.142857 0
3.05071 0.142857 0
2.81604 0.214286 0
[...]
POINT_DATA 2688
SCALARS x1_displacement double 1
LOOKUP_TABLE default
1.29046 1.20398 1.29046 1.20467 1.20398 1.1184 1.20467 1.11958 1.1184 1.03677 1.11958 1.03804 1.03677 0.965931 1.03804 0.966841 0.965931 0.915601 0.966841 0.91599 0.915601 0.888152 0.91599 0.888213 0.888152 0.862249 0.888213 0.861971 0.862249 0.815833 0.861971 0.814981 0.815833 0.750892 0.814981 0.749569 0.750892 0.677954 0.749569 0.676532 0.677954 0.605295 0.676532 0.604103 0.605295 0.537428 0.604103 0.536599 0.537428 0.476034 0.536599 0.475552 0.476034 0.421081 0.475552 0.420865 0.421081 0.371634 0.420865 0.371593 0.371634 0.326376 0.371593 0.326436 0.326376 0.283942 0.326436 0.284047 0.283942 0.24313 0.284047 0.243243 0.24313 0.203014 0.243243 0.203115 0.203014 0.162982 0.203115 0.163061 0.162982 0.122703 0.163061 0.12276 0.122703 0.0820695 0.12276 0.0821046 0.0820695 0.0411234 0.0821046 0.04114 0.0411234 0 0.04114 0 0 -0.0411234 0 -0.04114 -0.0411234 -0.0820695 -0.04114 -0.0821046 -0.0820695 -0.122703 -0.0821046 -0.12276 -0.122703 -0.162982 -0.12276 -0.163061 -0.162982 -0.203014 -0.163061 -0.203115 -0.203014 -0.24313 -0.203115 -0.243243 -0.24313 -0.283942 -0.243243 -0.284047 -0.283942 -0.326376 -0.284047 -0.326436 -0.326376 -0.371634 -0.326436 -0.371593 -0.371634 -0.421081 -0.371593 -0.420865 -0.421081 -0.476034 -0.420865 -0.475552 -0.476034 -0.537428 -0.475552 -0.536599 -0.537428 -0.605295 -0.536599 -0.604103 -0.605295 -0.677954 -0.604103 -0.676532 -0.677954 -0.750892 -0.676532 -0.749569 -0.750892 -0.815833 -0.749569 -0.814981 -0.815833 -0.862249 -0.814981 -0.861971 -0.862249 -0.888152 -0.861971 -0.888213 -0.888152 -0.915601 -0.888213 -0.91599 -0.915601 -0.965931 -0.91599 -0.966841 -0.965931 -1.03677 -0.966841 -1.03804 -1.03677 -1.1184 -1.03804 -1.11958 -1.1184 -1.20398 -1.11958 -1.20467 -1.20398 -1.29046 -1.20467 -1.29046 1.29046 1.20467 1.29046 1.20668 1.20467 1.11958 1.20668 1.12304 1.11958 1.03804 1.12304 1.04178 1.03804 0.966841 1.04178 0.969519 0.966841 0.91599 0.969519 0.917052 0.91599 0.888213 0.917052 0.888378 0.888213 0.861971 0.888378 0.861228 0.861971 0.814981 0.861228 0.812503 0.814981 0.749569 0.812503 0.745728 0.749569 0.676532 0.745728 0.672483 0.676532 0.604103 0.672483 0.600767 0.604103 0.536599 0.600767 0.534315 0.536599 0.475552 0.534315 0.474244 0.475552 0.420865 0.474244 0.420292 0.420865 0.371593 0.420292 0.371502 0.371593 0.326436 0.371502 0.326616 0.326436 0.284047 0.326616 0.284347 0.284047 0.243243 0.284347 0.243562 0.243243 0.203115 0.243562 0.203398 0.203115 0.163061 0.203398 0.163283 0.163061 0.12276 0.163283 0.122917 0.12276 0.0821046 0.122917 0.0822018 0.0821046 0.04114 0.0822018 0.041186 0.04114 0 0.041186 0 0 -0.04114 0 -0.041186 -0.04114 -0.0821046 -0.041186 -0.0822018 -0.0821046 -0.12276 -0.0822018 -0.122917 -0.12276 -0.163061 -0.122917 -0.163283 -0.163061 -0.203115 -0.163283 -0.203398 -0.203115 -0.243243 -0.203398 -0.243562 -0.243243 -0.284047 -0.243562 -0.284347 -0.284047 -0.326436 -0.284347 -0.326616 -0.326436 -0.371593 -0.326616 -0.371502 -0.371593 -0.420865 -0.371502 -0.420292 -0.420865 -0.475552 -0.420292 -0.474244 -0.475552 -0.536599 -0.474244 -0.534315 -0.536599 -0.604103 -0.534315 -0.600767 -0.604103 -0.676532 -0.600767 -0.672483 -0.676532 -0.749569 -0.672483 -0.745728 -0.749569 -0.814981 -0.745728 -0.812503 -0.814981 -0.861971 -0.812503 -0.861228 -0.861971 -0.888213 -0.861228 -0.888378 -0.888213 -0.91599 -0.888378 -0.917052 -0.91599 -0.966841 -0.917052 -0.969519 -0.966841 -1.03804 -0.969519 -1.04178 -1.03804 -1.11958 -1.04178 -1.12304 -1.11958 -1.20467 -1.12304 -1.20668 -1.20467 -1.29046 -1.20668 -1.29046 1.29046 1.20668 1.29046 1.2099 1.20668 1.12304 1.2099 1.12863 1.12304 1.04178 1.12863 1.04794 1.04178 0.969519 1.04794 0.973949 0.969519 0.917052 0.973949 0.918737 0.917052 0.888378 0.918737 0.88863 0.888378 0.861228 0.88863 0.860052 0.861228 0.812503 0.860052 0.80843 0.812503 0.745728 0.80843 0.739497 0.745728 0.672483 0.739497 0.666062 0.672483 0.600767 0.666062 0.595586 0.600767 0.534315 0.595586 0.530823 0.534315 0.474244 0.530823 0.47227 0.474244 0.420292 0.47227 0.419446 0.420292 0.371502 0.419446 0.371389 0.371502 0.326616 0.371389 0.326913 0.326616 0.284347 0.326913 0.28482 0.284347 0.243562 0.28482 0.244061 0.243562 0.203398 0.244061 0.203836 0.203398 0.163283 0.203836 0.163626 0.163283 0.122917 0.163626 0.123157 0.122917 0.0822018 0.123157 0.0823507 0.0822018 0.041186 0.0823507 0.0412562 0.041186 0 0.0412562 0 0 -0.041186 0 -0.0412562 -0.041186 -0.0822018 -0.0412562 -0.0823507 -0.0822018 -0.122917 -0.0823507 -0.123157 -0.122917 -0.163283 -0.123157 -0.163626 -0.163283 -0.203398 -0.163626 -0.203836 -0.203398 -0.243562 -0.203836 -0.244061 -0.243562 -0.284347 -0.244061 -0.28482 -0.284347 -0.326616 -0.28482 -0.326913 -0.326616 -0.371502 -0.326913 -0.371389 -0.371502 -0.420292 -0.371389 -0.419446 -0.420292 -0.474244 -0.419446 -0.47227 -0.474244 -0.534315 -0.47227 -0.530823 -0.534315 -0.600767 -0.530823 -0.595586 -0.600767 -0.672483 -0.595586 -0.666062 -0.672483 -0.745728 -0.666062 -0.739497 -0.745728 -0.812503 -0.739497 -0.80843 -0.812503 -0.861228 -0.80843 -0.860052 -0.861228 -0.888378 -0.860052 -0.88863 -0.888378 -0.917052 -0.88863 -0.918737 -0.917052 -0.969519 -0.918737 -0.973949 -0.969519 -1.04178 -0.973949 -1.04794 -1.04178 -1.12304 -1.04794 -1.12863 -1.12304 -1.20668 -1.12863 -1.2099 -1.20668 -1.29046 -1.2099 -1.29046 1.29046 1.2099 1.29046 1.21423 1.2099 1.12863 1.21423 1.13632 1.12863 1.04794 1.13632 1.05665 1.04794 0.973949 1.05665 0.980371 0.973949 0.918737 0.980371 0.921151 0.918737 0.88863 0.921151 0.88896 0.88863 0.860052 0.88896 0.858336 0.860052 0.80843 0.858336 0.802554 0.80843 0.739497 0.802554 0.730822 0.739497 0.666062 0.730822 0.657449 0.666062 0.595586 0.657449 0.58885 0.595586 0.530823 0.58885 0.52639 0.530823 0.47227 0.52639 0.46982 0.47227 0.419446 0.46982 0.418438 0.419446 0.371389 0.418438 0.371305 0.371389 0.326913 0.371305 0.327338 0.326913 0.28482 0.327338 0.285457 0.28482 0.244061 0.285457 0.244717 0.244061 0.203836 0.244717 0.204407 0.203836 0.163626 0.204407 0.164067 0.163626 0.123157 0.164067 0.123465 0.123157 0.0823507 0.123465 0.08254 0.0823507 0.0412562 0.08254 0.0413449 0.0412562 0 0.0413449 0 0 -0.0412562 0 -0.0413449 -0.0412562 -0.0823507 -0.0413449 -0.08254 -0.0823507 -0.123157 -0.08254 -0.123465 -0.123157 -0.163626 -0.123465 -0.164067 -0.163626 -0.203836 -0.164067 -0.204407 -0.203836 -0.244061 -0.204407 -0.244717 -0.244061 -0.28482 -0.244717 -0.285457 -0.28482 -0.326913 -0.285457 -0.327338 -0.326913 -0.371389 -0.327338 -0.371305 -0.371389 -0.419446 -0.371305 -0.418438 -0.419446 -0.47227 -0.418438 -0.46982 -0.47227 -0.530823 -0.46982 -0.52639 -0.530823 -0.595586 -0.52639 -0.58885 -0.595586 -0.666062 -0.58885 -0.657449 -0.666062 -0.739497 -0.657449 -0.730822 -0.739497 -0.80843 -0.730822 -0.802554 -0.80843 -0.860052 -0.802554 -0.858336 -0.860052 -0.88863 -0.858336 -0.88896 -0.88863 -0.918737 -0.88896 -0.921151 -0.918737 -0.973949 -0.921151 -0.980371 -0.973949 -1.04794 -0.980371 -1.05665 -1.04794 -1.12863 -1.05665 -1.13632 -1.12863 -1.2099 -1.13632 -1.21423 -1.2099 -1.29046 -1.21423 -1.29046 1.29046 1.21423 1.29046 1.21959 1.21423 1.13632 1.21959 1.1461 1.13632 1.05665 1.1461 1.06819 1.05665 0.980371 1.06819 0.989281 0.980371 0.921151 0.989281 0.924565 0.921151 0.88896 0.924565 0.889364 0.88896 0.858336 0.889364 0.855822 0.858336 0.802554 0.855822 0.794426 0.802554 0.730822 0.794426 0.719497 0.730822 0.657449 0.719497 0.64679 0.657449 0.58885 0.64679 0.580857 0.58885 0.52639 0.580857 0.521297 0.52639 0.46982 0.521297 0.467098 0.46982 0.418438 0.467098 0.417396 0.418438 0.371305 0.417396 0.371318 0.371305 0.327338 0.371318 0.327918 0.327338 0.285457 0.327918 0.286257 0.285457 0.244717 0.286257 0.245518 0.244717 0.204407 0.245518 0.20509 0.204407 0.164067 0.20509 0.164588 0.164067 0.123465 0.164588 0.123824 0.123465 0.08254 0.123824 0.0827577 0.08254 0.0413449 0.0827577 0.0414463 0.0413449 0 0.0414463 0 0 -0.0413449 0 -0.0414463 -0.0413449 -0.08254 -0.0414463 -0.0827577 -0.08254 -0.123465 -0.0827577 -0.123824 -0.123465 -0.164067 -0.123824 -0.164588 -0.164067 -0.204407 -0.164588 -0.20509 -0.204407 -0.244717 -0.20509 -0.245518 -0.244717 -0.285457 -0.245518 -0.286257 -0.285457 -0.327338 -0.286257 -0.327918 -0.327338 -0.371305 -0.327918 -0.371318 -0.371305 -0.418438 -0.371318 -0.417396 -0.418438 -0.46982 -0.417396 -0.467098 -0.46982 -0.52639 -0.467098 -0.521297 -0.52639 -0.58885 -0.521297 -0.580857 -0.58885 -0.657449 -0.580857 -0.64679 -0.657449 -0.730822 -0.64679 -0.719497 -0.730822 -0.802554 -0.719497 -0.794426 -0.802554 -0.858336 -0.794426 -0.855822 -0.858336 -0.88896 -0.855822 -0.889364 -0.88896 -0.921151 -0.889364 -0.924565 -0.921151 -0.980371 -0.924565 -0.989281 -0.980371 -1.05665 -0.989281 -1.06819 -1.05665 -1.13632 -1.06819 -1.1461 -1.13632 -1.21423 -1.1461 -1.21959 -1.21423 -1.29046 -1.21959 -1.29046 1.29046 1.21959 1.29046 1.22585 1.21959 1.1461 1.22585 1.15792 1.1461 1.06819 1.15792 1.08296 1.06819 0.989281 1.08296 1.00145 0.989281 0.924565 1.00145 0.929462 0.924565 0.889364 0.929462 0.889839 0.889364 0.855822 0.889839 0.852053 0.855822 0.794426 0.852053 0.783324 0.794426 0.719497 0.783324 0.705219 0.719497 0.64679 0.705219 0.634257 0.64679 0.580857 0.634257 0.571938 0.580857 0.521297 0.571938 0.515841 0.521297 0.467098 0.515841 0.46432 0.467098 0.417396 0.46432 0.41646 0.417396 0.371318 0.41646 0.371508 0.371318 0.327918 0.371508 0.328687 0.327918 0.286257 0.328687 0.287225 0.286257 0.245518 0.287225 0.24645 0.245518 0.20509 0.24645 0.205866 0.20509 0.164588 0.205866 0.165167 0.164588 0.123824 0.165167 0.124215 0.123824 0.0827577 0.124215 0.0829916 0.0827577 0.0414463 0.0829916 0.0415539 0.0414463 0 0.0415539 0 0 -0.0414463 0 -0.0415539 -0.0414463 -0.0827577 -0.0415539 -0.0829916 -0.0827577 -0.123824 -0.0829916 -0.124215 -0.123824 -0.164588 -0.124215 -0.165167 -0.164588 -0.20509 -0.165167 -0.205866 -0.20509 -0.245518 -0.205866 -0.24645 -0.245518 -0.286257 -0.24645 -0.287225 -0.286257 -0.327918 -0.287225 -0.328687 -0.327918 -0.371318 -0.328687 -0.371508 -0.371318 -0.417396 -0.371508 -0.41646 -0.417396 -0.467098 -0.41646 -0.46432 -0.467098 -0.521297 -0.46432 -0.515841 -0.521297 -0.580857 -0.515841 -0.571938 -0.580857 -0.64679 -0.571938 -0.634257 -0.64679 -0.719497 -0.634257 -0.705219 -0.719497 -0.794426 -0.705219 -0.783324 -0.794426 -0.855822 -0.783324 -0.852053 -0.855822 -0.889364 -0.852053 -0.889839 -0.889364 -0.924565 -0.889839 -0.929462 -0.924565 -0.989281 -0.929462 -1.00145 -0.989281 -1.06819 -1.00145 -1.08296 -1.06819 -1.1461 -1.08296 -1.15792 -1.1461 -1.21959 -1.15792 -1.22585 -1.21959 -1.29046 -1.22585 -1.29046 1.29046 1.22585 1.29046 1.23284 1.22585 1.15792 1.23284 1.17163 1.15792 1.08296 1.17163 1.10132 1.08296 1.00145 1.10132 1.01798 1.00145 0.929462 1.01798 0.936641 0.929462 0.889839 0.936641 0.890385 0.889839 0.852053 0.890385 0.846261 0.852053 0.783324 0.846261 0.76819 0.783324 0.705219 0.76819 0.687664 0.705219 0.634257 0.687664 0.620121 0.634257 0.571938 0.620121 0.562471 0.571938 0.515841 0.562471 0.510326 0.515841 0.46432 0.510326 0.461706 0.46432 0.41646 0.461706 0.415774 0.41646 0.371508 0.415774 0.371958 0.371508 0.328687 0.371958 0.329683 0.328687 0.287225 0.329683 0.288368 0.287225 0.24645 0.288368 0.247503 0.24645 0.205866 0.247503 0.206715 0.205866 0.165167 0.206715 0.165784 0.165167 0.124215 0.165784 0.124622 0.124215 0.0829916 0.124622 0.083229 0.0829916 0.0415539 0.083229 0.0416611 0.0415539 0 0.0416611 0 0 -0.0415539 0 -0.0416611 -0.0415539 -0.0829916 -0.0416611 -0.083229 -0.0829916 -0.124215 -0.083229 -0.124622 -0.124215 -0.165167 -0.124622 -0.165784 -0.165167 -0.205866 -0.165784 -0.206715 -0.205866 -0.24645 -0.206715 -0.247503 -0.24645 -0.287225 -0.247503 -0.288368 -0.287225 -0.328687 -0.288368 -0.329683 -0.328687 -0.371508 -0.329683 -0.371958 -0.371508 -0.41646 -0.371958 -0.415774 -0.41646 -0.46432 -0.415774 -0.461706 -0.46432 -0.515841 -0.461706 -0.510326 -0.515841 -0.571938 -0.510326 -0.562471 -0.571938 -0.634257 -0.562471 -0.620121 -0.634257 -0.705219 -0.620121 -0.687664 -0.705219 -0.783324 -0.687664 -0.76819 -0.783324 -0.852053 -0.76819 -0.846261 -0.852053 -0.889839 -0.846261 -0.890385 -0.889839 -0.929462 -0.890385 -0.936641 -0.929462 -1.00145 -0.936641 -1.01798 -1.00145 -1.08296 -1.01798 -1.10132 -1.08296 -1.15792 -1.10132 -1.17163 -1.15792 -1.22585 -1.17163 -1.23284 -1.22585 -1.29046 -1.23284 -1.29046 1.29046 1.23284 1.29046 1.24032 1.23284 1.17163 1.24032 1.18686 1.17163 1.10132 1.18686 1.12347 1.10132 1.01798 1.12347 1.04034 1.01798 0.936641 1.04034 0.947416 0.936641 0.890385 0.947416 0.891006 0.890385 0.846261 0.891006 0.837164 0.846261 0.76819 0.837164 0.747563 0.76819 0.687664 0.747563 0.666655 0.687664 0.620121 0.666655 0.604829 0.620121 0.562471 0.604829 0.552877 0.562471 0.510326 0.552877 0.505065 0.510326 0.461706 0.505065 0.459479 0.461706 0.415774 0.459479 0.415485 0.415774 0.371958 0.415485 0.372752 0.371958 0.329683 0.372752 0.330946 0.329683 0.288368 0.330946 0.289695 0.288368 0.247503 0.289695 0.248666 0.247503 0.206715 0.248666 0.207618 0.206715 0.165784 0.207618 0.166418 0.165784 0.124622 0.166418 0.125025 0.124622 0.083229 0.125025 0.0834568 0.083229 0.0416611 0.0834568 0.0417614 0.0416611 0 0.0417614 0 0 -0.0416611 0 -0.0417614 -0.0416611 -0.083229 -0.0417614 -0.0834568 -0.083229 -0.124622 -0.0834568 -0.125025 -0.124622 -0.165784 -0.125025 -0.166418 -0.165784 -0.206715 -0.166418 -0.207618 -0.206715 -0.247503 -0.207618 -0.248666 -0.247503 -0.288368 -0.248666 -0.289695 -0.288368 -0.329683 -0.289695 -0.330946 -0.329683 -0.371958 -0.330946 -0.372752 -0.371958 -0.415774 -0.372752 -0.415485 -0.415774 -0.461706 -0.415485 -0.459479 -0.461706 -0.510326 -0.459479 -0.505065 -0.510326 -0.562471 -0.505065 -0.552877 -0.562471 -0.620121 -0.552877 -0.604829 -0.620121 -0.687664 -0.604829 -0.666655 -0.687664 -0.76819 -0.666655 -0.747563 -0.76819 -0.846261 -0.747563 -0.837164 -0.846261 -0.890385 -0.837164 -0.891006 -0.890385 -0.936641 -0.891006 -0.947416 -0.936641 -1.01798 -0.947416 -1.04034 -1.01798 -1.10132 -1.04034 -1.12347 -1.10132 -1.17163 -1.12347 -1.18686 -1.17163 -1.23284 -1.18686 -1.24032 -1.23284 -1.29046 -1.24032 -1.29046 1.29046 1.24032 1.29046 1.24803 1.24032 1.18686 1.24803 1.20301 1.18686 1.12347 1.20301 1.14911 1.12347 1.04034 1.14911 1.07035 1.04034 0.947416 1.07035 0.964014 0.947416 0.891006 0.964014 0.891708 0.891006 0.837164 0.891708 0.822557 0.837164 0.747563 0.822557 0.719559 0.747563 0.666655 0.719559 0.642473 0.666655 0.604829 0.642473 0.589048 0.604829 0.552877 0.589048 0.543593 0.552877 0.505065 0.543593 0.500366 0.505065 0.459479 0.500366 0.457856 0.459479 0.415485 0.457856 0.415735 0.415485 0.372752 0.415735 0.373974 0.372752 0.330946 0.373974 0.332511 0.330946 0.289695 0.332511 0.291211 0.289695 0.248666 0.291211 0.249927 0.248666 0.207618 0.249927 0.208553 0.207618 0.166418 0.208553 0.167045 0.166418 0.125025 0.167045 0.125406 0.125025 0.0834568 0.125406 0.0836615 0.0834568 0.0417614 0.0836615 0.0418478 0.0417614 0 0.0418478 0 0 -0.0417614 0 -0.0418478 -0.0417614 -0.0834568 -0.0418478 -0.0836615 -0.0834568 -0.125025 -0.0836615 -0.125406 -0.125025 -0.166418 -0.125406 -0.167045 -0.166418 -0.207618 -0.167045 -0.208553 -0.207618 -0.248666 -0.208553 -0.249927 -0.248666 -0.289695 -0.249927 -0.291211 -0.289695 -0.330946 -0.291211 -0.332511 -0.330946 -0.372752 -0.332511 -0.373974 -0.372752 -0.415485 -0.373974 -0.415735 -0.415485 -0.459479 -0.415735 -0.457856 -0.459479 -0.505065 -0.457856 -0.500366 -0.505065 -0.552877 -0.500366 -0.543593 -0.552877 -0.604829 -0.543593 -0.589048 -0.604829 -0.666655 -0.589048 -0.642473 -0.666655 -0.747563 -0.642473 -0.719559 -0.747563 -0.837164 -0.719559 -0.822557 -0.837164 -0.891006 -0.822557 -0.891708 -0.891006 -0.947416 -0.891708 -0.964014 -0.947416 -1.04034 -0.964014 -1.07035 -1.04034 -1.12347 -1.07035 -1.14911 -1.12347 -1.18686 -1.14911 -1.20301 -1.18686 -1.24032 -1.20301 -1.24803 -1.24032 -1.29046 -1.24803 -1.29046 1.29046 1.24803 1.29046 1.25573 1.24803 1.20301 1.25573 1.21936 1.20301 1.14911 1.21936 1.17698 1.14911 1.07035 1.17698 1.10985 1.07035 0.964014 1.10985 0.990483 0.964014 0.891708 0.990483 0.892497 0.891708 0.822557 0.892497 0.79836 0.822557 0.719559 0.79836 0.682195 0.719559 0.642473 0.682195 0.616342 0.642473 0.589048 0.616342 0.573562 0.589048 0.543593 0.573562 0.535041 0.543593 0.500366 0.535041 0.496535 0.500366 0.457856 0.496535 0.457048 0.457856 0.415735 0.457048 0.41666 0.415735 0.373974 0.41666 0.375699 0.373974 0.332511 0.375699 0.334412 0.332511 0.291211 0.334412 0.292917 0.291211 0.249927 0.292917 0.251268 0.249927 0.208553 0.251268 0.209497 0.208553 0.167045 0.209497 0.167644 0.167045 0.125406 0.167644 0.125745 0.125406 0.0836615 0.125745 0.0838293 0.0836615 0.0418478 0.0838293 0.0419133 0.0418478 0 0.0419133 0 0 -0.0418478 0 -0.0419133 -0.0418478 -0.0836615 -0.0419133 -0.0838293 -0.0836615 -0.125406 -0.0838293 -0.125745 -0.125406 -0.167045 -0.125745 -0.167644 -0.167045 -0.208553 -0.167644 -0.209497 -0.208553 -0.249927 -0.209497 -0.251268 -0.249927 -0.291211 -0.251268 -0.292917 -0.291211 -0.332511 -0.292917 -0.334412 -0.332511 -0.373974 -0.334412 -0.375699 -0.373974 -0.415735 -0.375699 -0.41666 -0.415735 -0.457856 -0.41666 -0.457048 -0.457856 -0.500366 -0.457048 -0.496535 -0.500366 -0.543593 -0.496535 -0.535041 -0.543593 -0.589048 -0.535041 -0.573562 -0.589048 -0.642473 -0.573562 -0.616342 -0.642473 -0.719559 -0.616342 -0.682195 -0.719559 -0.822557 -0.682195 -0.79836 -0.822557 -0.891708 -0.79836 -0.892497 -0.891708 -0.964014 -0.892497 -0.990483 -0.964014 -1.07035 -0.990483 -1.10985 -1.07035 -1.14911 -1.10985 -1.17698 -1.14911 -1.20301 -1.17698 -1.21936 -1.20301 -1.24803 -1.21936 -1.25573 -1.24803 -1.29046 -1.25573 -1.29046 1.29046 1.25573 1.29046 1.26316 1.25573 1.21936 1.26316 1.2354 1.21936 1.17698 1.2354 1.2047 1.17698 1.10985 1.2047 1.15859 1.10985 0.990483 1.15859 1.03529 0.990483 0.892497 1.03529 0.89333 0.892497 0.79836 0.89333 0.755872 0.79836 0.682195 0.755872 0.635506 0.682195 0.616342 0.635506 0.590622 0.616342 0.573562 0.590622 0.558983 0.573562 0.535041 0.558983 0.527659 0.535041 0.496535 0.527659 0.493863 0.496535 0.457048 0.493863 0.457253 0.457048 0.41666 0.457253 0.418388 0.41666 0.375699 0.418388 0.377999 0.375699 0.334412 0.377999 0.336672 0.334412 0.292917 0.336672 0.294808 0.292917 0.251268 0.294808 0.252667 0.251268 0.209497 0.252667 0.210422 0.209497 0.167644 0.210422 0.168186 0.167644 0.125745 0.168186 0.12602 0.125745 0.0838293 0.12602 0.0839463 0.0838293 0.0419133 0.0839463 0.041951 0.0419133 0 0.041951 0 0 -0.0419133 0 -0.041951 -0.0419133 -0.0838293 -0.041951 -0.0839463 -0.0838293 -0.125745 -0.0839463 -0.12602 -0.125745 -0.167644 -0.12602 -0.168186 -0.167644 -0.209497 -0.168186 -0.210422 -0.209497 -0.251268 -0.210422 -0.252667 -0.251268 -0.292917 -0.252667 -0.294808 -0.292917 -0.334412 -0.294808 -0.336672 -0.334412 -0.375699 -0.336672 -0.377999 -0.375699 -0.41666 -0.377999 -0.418388 -0.41666 -0.457048 -0.418388 -0.457253 -0.457048 -0.496535 -0.457253 -0.493863 -0.496535 -0.535041 -0.493863 -0.527659 -0.535041 -0.573562 -0.527659 -0.558983 -0.573562 -0.616342 -0.558983 -0.590622 -0.616342 -0.682195 -0.590622 -0.635506 -0.682195 -0.79836 -0.635506 -0.755872 -0.79836 -0.892497 -0.755872 -0.89333 -0.892497 -0.990483 -0.89333 -1.03529 -0.990483 -1.10985 -1.03529 -1.15859 -1.10985 -1.17698 -1.15859 -1.2047 -1.17698 -1.21936 -1.2047 -1.2354 -1.21936 -1.25573 -1.2354 -1.26316 -1.25573 -1.29046 -1.26316 -1.29046 1.29046 1.26316 1.29046 1.27007 1.26316 1.2354 1.27007 1.25048 1.2354 1.2047 1.25048 1.23123 1.2047 1.15859 1.23123 1.20687 1.15859 1.03529 1.20687 1.11743 1.03529 0.89333 1.11743 0.893946 0.89333 0.755872 0.893946 0.675102 0.755872 0.635506 0.675102 0.589211 0.635506 0.590622 0.589211 0.566403 0.590622 0.558983 0.566403 0.546017 0.558983 0.527659 0.546017 0.521832 0.527659 0.493863 0.521832 0.492625 0.493863 0.457253 0.492625 0.458659 0.457253 0.418388 0.458659 0.421039 0.418388 0.377999 0.421039 0.380933 0.377999 0.336672 0.380933 0.339308 0.336672 0.294808 0.339308 0.296869 0.294808 0.252667 0.296869 0