# vtk DataFile Version 3.0
#This file was generated by the deal.II library on 2017/9/27 at 13:15:05
ASCII
DATASET UNSTRUCTURED_GRID

POINTS 2688 double
-5.63207 0 0
-5.3974 0 0
-5.63207 0.0714286 0
-5.3974 0.0714286 0
-5.3974 0 0
-5.16273 0 0
-5.3974 0.0714286 0
-5.16273 0.0714286 0
-5.16273 0 0
-4.92806 0 0
-5.16273 0.0714286 0
-4.92806 0.0714286 0
-4.92806 0 0
-4.69339 0 0
-4.92806 0.0714286 0
-4.69339 0.0714286 0
-4.69339 0 0
-4.45872 0 0
-4.69339 0.0714286 0
-4.45872 0.0714286 0
-4.45872 0 0
-4.22405 0 0
-4.45872 0.0714286 0
-4.22405 0.0714286 0
-4.22405 0 0
-3.98938 0 0
-4.22405 0.0714286 0
-3.98938 0.0714286 0
-3.98938 0 0
-3.75472 0 0
-3.98938 0.0714286 0
-3.75472 0.0714286 0
-3.75472 0 0
-3.52005 0 0
-3.75472 0.0714286 0
-3.52005 0.0714286 0
-3.52005 0 0
-3.28538 0 0
-3.52005 0.0714286 0
-3.28538 0.0714286 0
-3.28538 0 0
-3.05071 0 0
-3.28538 0.0714286 0
-3.05071 0.0714286 0
-3.05071 0 0
-2.81604 0 0
-3.05071 0.0714286 0
-2.81604 0.0714286 0
-2.81604 0 0
-2.58137 0 0
-2.81604 0.0714286 0
-2.58137 0.0714286 0
-2.58137 0 0
-2.3467 0 0
-2.58137 0.0714286 0
-2.3467 0.0714286 0
-2.3467 0 0
-2.11203 0 0
-2.3467 0.0714286 0
-2.11203 0.0714286 0
-2.11203 0 0
-1.87736 0 0
-2.11203 0.0714286 0
-1.87736 0.0714286 0
-1.87736 0 0
-1.64269 0 0
-1.87736 0.0714286 0
-1.64269 0.0714286 0
-1.64269 0 0
-1.40802 0 0
-1.64269 0.0714286 0
-1.40802 0.0714286 0
-1.40802 0 0
-1.17335 0 0
-1.40802 0.0714286 0
-1.17335 0.0714286 0
-1.17335 0 0
-0.938679 0 0
-1.17335 0.0714286 0
-0.938679 0.0714286 0
-0.938679 0 0
-0.704009 0 0
-0.938679 0.0714286 0
-0.704009 0.0714286 0
-0.704009 0 0
-0.469339 0 0
-0.704009 0.0714286 0
-0.469339 0.0714286 0
-0.469339 0 0
-0.23467 0 0
-0.469339 0.0714286 0
-0.23467 0.0714286 0
-0.23467 0 0
0 0 0
-0.23467 0.0714286 0
0 0.0714286 0
0 0 0
0.23467 0 0
0 0.0714286 0
0.23467 0.0714286 0
0.23467 0 0
0.469339 0 0
0.23467 0.0714286 0
0.469339 0.0714286 0
0.469339 0 0
0.704009 0 0
0.469339 0.0714286 0
0.704009 0.0714286 0
0.704009 0 0
0.938679 0 0
0.704009 0.0714286 0
0.938679 0.0714286 0
0.938679 0 0
1.17335 0 0
0.938679 0.0714286 0
1.17335 0.0714286 0
1.17335 0 0
1.40802 0 0
1.17335 0.0714286 0
1.40802 0.0714286 0
1.40802 0 0
1.64269 0 0
1.40802 0.0714286 0
1.64269 0.0714286 0
1.64269 0 0
1.87736 0 0
1.64269 0.0714286 0
1.87736 0.0714286 0
1.87736 0 0
2.11203 0 0
1.87736 0.0714286 0
2.11203 0.0714286 0
2.11203 0 0
2.3467 0 0
2.11203 0.0714286 0
2.3467 0.0714286 0
2.3467 0 0
2.58137 0 0
2.3467 0.0714286 0
2.58137 0.0714286 0
2.58137 0 0
2.81604 0 0
2.58137 0.0714286 0
2.81604 0.0714286 0
2.81604 0 0
3.05071 0 0
2.81604 0.0714286 0
3.05071 0.0714286 0
3.05071 0 0
3.28538 0 0
3.05071 0.0714286 0
3.28538 0.0714286 0
3.28538 0 0
3.52005 0 0
3.28538 0.0714286 0
3.52005 0.0714286 0
3.52005 0 0
3.75472 0 0
3.52005 0.0714286 0
3.75472 0.0714286 0
3.75472 0 0
3.98938 0 0
3.75472 0.0714286 0
3.98938 0.0714286 0
3.98938 0 0
4.22405 0 0
3.98938 0.0714286 0
4.22405 0.0714286 0
4.22405 0 0
4.45872 0 0
4.22405 0.0714286 0
4.45872 0.0714286 0
4.45872 0 0
4.69339 0 0
4.45872 0.0714286 0
4.69339 0.0714286 0
4.69339 0 0
4.92806 0 0
4.69339 0.0714286 0
4.92806 0.0714286 0
4.92806 0 0
5.16273 0 0
4.92806 0.0714286 0
5.16273 0.0714286 0
5.16273 0 0
5.3974 0 0
5.16273 0.0714286 0
5.3974 0.0714286 0
5.3974 0 0
5.63207 0 0
5.3974 0.0714286 0
5.63207 0.0714286 0
-5.63207 0.0714286 0
-5.3974 0.0714286 0
-5.63207 0.142857 0
-5.3974 0.142857 0
-5.3974 0.0714286 0
-5.16273 0.0714286 0
-5.3974 0.142857 0
-5.16273 0.142857 0
-5.16273 0.0714286 0
-4.92806 0.0714286 0
-5.16273 0.142857 0
-4.92806 0.142857 0
-4.92806 0.0714286 0
-4.69339 0.0714286 0
-4.92806 0.142857 0
-4.69339 0.142857 0
-4.69339 0.0714286 0
-4.45872 0.0714286 0
-4.69339 0.142857 0
-4.45872 0.142857 0
-4.45872 0.0714286 0
-4.22405 0.0714286 0
-4.45872 0.142857 0
-4.22405 0.142857 0
-4.22405 0.0714286 0
-3.98938 0.0714286 0
-4.22405 0.142857 0
-3.98938 0.142857 0
-3.98938 0.0714286 0
-3.75472 0.0714286 0
-3.98938 0.142857 0
-3.75472 0.142857 0
-3.75472 0.0714286 0
-3.52005 0.0714286 0
-3.75472 0.142857 0
-3.52005 0.142857 0
-3.52005 0.0714286 0
-3.28538 0.0714286 0
-3.52005 0.142857 0
-3.28538 0.142857 0
-3.28538 0.0714286 0
-3.05071 0.0714286 0
-3.28538 0.142857 0
-3.05071 0.142857 0
-3.05071 0.0714286 0
-2.81604 0.0714286 0
-3.05071 0.142857 0
-2.81604 0.142857 0
-2.81604 0.0714286 0
-2.58137 0.0714286 0
-2.81604 0.142857 0
-2.58137 0.142857 0
-2.58137 0.0714286 0
-2.3467 0.0714286 0
-2.58137 0.142857 0
-2.3467 0.142857 0
-2.3467 0.0714286 0
-2.11203 0.0714286 0
-2.3467 0.142857 0
-2.11203 0.142857 0
-2.11203 0.0714286 0
-1.87736 0.0714286 0
-2.11203 0.142857 0
-1.87736 0.142857 0
-1.87736 0.0714286 0
-1.64269 0.0714286 0
-1.87736 0.142857 0
-1.64269 0.142857 0
-1.64269 0.0714286 0
-1.40802 0.0714286 0
-1.64269 0.142857 0
-1.40802 0.142857 0
-1.40802 0.0714286 0
-1.17335 0.0714286 0
-1.40802 0.142857 0
-1.17335 0.142857 0
-1.17335 0.0714286 0
-0.938679 0.0714286 0
-1.17335 0.142857 0
-0.938679 0.142857 0
-0.938679 0.0714286 0
-0.704009 0.0714286 0
-0.938679 0.142857 0
-0.704009 0.142857 0
-0.704009 0.0714286 0
-0.469339 0.0714286 0
-0.704009 0.142857 0
-0.469339 0.142857 0
-0.469339 0.0714286 0
-0.23467 0.0714286 0
-0.469339 0.142857 0
-0.23467 0.142857 0
-0.23467 0.0714286 0
0 0.0714286 0
-0.23467 0.142857 0
0 0.142857 0
0 0.0714286 0
0.23467 0.0714286 0
0 0.142857 0
0.23467 0.142857 0
0.23467 0.0714286 0
0.469339 0.0714286 0
0.23467 0.142857 0
0.469339 0.142857 0
0.469339 0.0714286 0
0.704009 0.0714286 0
0.469339 0.142857 0
0.704009 0.142857 0
0.704009 0.0714286 0
0.938679 0.0714286 0
0.704009 0.142857 0
0.938679 0.142857 0
0.938679 0.0714286 0
1.17335 0.0714286 0
0.938679 0.142857 0
1.17335 0.142857 0
1.17335 0.0714286 0
1.40802 0.0714286 0
1.17335 0.142857 0
1.40802 0.142857 0
1.40802 0.0714286 0
1.64269 0.0714286 0
1.40802 0.142857 0
1.64269 0.142857 0
1.64269 0.0714286 0
1.87736 0.0714286 0
1.64269 0.142857 0
1.87736 0.142857 0
1.87736 0.0714286 0
2.11203 0.0714286 0
1.87736 0.142857 0
2.11203 0.142857 0
2.11203 0.0714286 0
2.3467 0.0714286 0
2.11203 0.142857 0
2.3467 0.142857 0
2.3467 0.0714286 0
2.58137 0.0714286 0
2.3467 0.142857 0
2.58137 0.142857 0
2.58137 0.0714286 0
2.81604 0.0714286 0
2.58137 0.142857 0
2.81604 0.142857 0
2.81604 0.0714286 0
3.05071 0.0714286 0
2.81604 0.142857 0
3.05071 0.142857 0
3.05071 0.0714286 0
3.28538 0.0714286 0
3.05071 0.142857 0
3.28538 0.142857 0
3.28538 0.0714286 0
3.52005 0.0714286 0
3.28538 0.142857 0
3.52005 0.142857 0
3.52005 0.0714286 0
3.75472 0.0714286 0
3.52005 0.142857 0
3.75472 0.142857 0
3.75472 0.0714286 0
3.98938 0.0714286 0
3.75472 0.142857 0
3.98938 0.142857 0
3.98938 0.0714286 0
4.22405 0.0714286 0
3.98938 0.142857 0
4.22405 0.142857 0
4.22405 0.0714286 0
4.45872 0.0714286 0
4.22405 0.142857 0
4.45872 0.142857 0
4.45872 0.0714286 0
4.69339 0.0714286 0
4.45872 0.142857 0
4.69339 0.142857 0
4.69339 0.0714286 0
4.92806 0.0714286 0
4.69339 0.142857 0
4.92806 0.142857 0
4.92806 0.0714286 0
5.16273 0.0714286 0
4.92806 0.142857 0
5.16273 0.142857 0
5.16273 0.0714286 0
5.3974 0.0714286 0
5.16273 0.142857 0
5.3974 0.142857 0
5.3974 0.0714286 0
5.63207 0.0714286 0
5.3974 0.142857 0
5.63207 0.142857 0
-5.63207 0.142857 0
-5.3974 0.142857 0
-5.63207 0.214286 0
-5.3974 0.214286 0
-5.3974 0.142857 0
-5.16273 0.142857 0
-5.3974 0.214286 0
-5.16273 0.214286 0
-5.16273 0.142857 0
-4.92806 0.142857 0
-5.16273 0.214286 0
-4.92806 0.214286 0
-4.92806 0.142857 0
-4.69339 0.142857 0
-4.92806 0.214286 0
-4.69339 0.214286 0
-4.69339 0.142857 0
-4.45872 0.142857 0
-4.69339 0.214286 0
-4.45872 0.214286 0
-4.45872 0.142857 0
-4.22405 0.142857 0
-4.45872 0.214286 0
-4.22405 0.214286 0
-4.22405 0.142857 0
-3.98938 0.142857 0
-4.22405 0.214286 0
-3.98938 0.214286 0
-3.98938 0.142857 0
-3.75472 0.142857 0
-3.98938 0.214286 0
-3.75472 0.214286 0
-3.75472 0.142857 0
-3.52005 0.142857 0
-3.75472 0.214286 0
-3.52005 0.214286 0
-3.52005 0.142857 0
-3.28538 0.142857 0
-3.52005 0.214286 0
-3.28538 0.214286 0
-3.28538 0.142857 0
-3.05071 0.142857 0
-3.28538 0.214286 0
-3.05071 0.214286 0
-3.05071 0.142857 0
-2.81604 0.142857 0
-3.05071 0.214286 0
-2.81604 0.214286 0
-2.81604 0.142857 0
-2.58137 0.142857 0
-2.81604 0.214286 0
-2.58137 0.214286 0
-2.58137 0.142857 0
-2.3467 0.142857 0
-2.58137 0.214286 0
-2.3467 0.214286 0
-2.3467 0.142857 0
-2.11203 0.142857 0
-2.3467 0.214286 0
-2.11203 0.214286 0
-2.11203 0.142857 0
-1.87736 0.142857 0
-2.11203 0.214286 0
-1.87736 0.214286 0
-1.87736 0.142857 0
-1.64269 0.142857 0
-1.87736 0.214286 0
-1.64269 0.214286 0
-1.64269 0.142857 0
-1.40802 0.142857 0
-1.64269 0.214286 0
-1.40802 0.214286 0
-1.40802 0.142857 0
-1.17335 0.142857 0
-1.40802 0.214286 0
-1.17335 0.214286 0
-1.17335 0.142857 0
-0.938679 0.142857 0
-1.17335 0.214286 0
-0.938679 0.214286 0
-0.938679 0.142857 0
-0.704009 0.142857 0
-0.938679 0.214286 0
-0.704009 0.214286 0
-0.704009 0.142857 0
-0.469339 0.142857 0
-0.704009 0.214286 0
-0.469339 0.214286 0
-0.469339 0.142857 0
-0.23467 0.142857 0
-0.469339 0.214286 0
-0.23467 0.214286 0
-0.23467 0.142857 0
0 0.142857 0
-0.23467 0.214286 0
0 0.214286 0
0 0.142857 0
0.23467 0.142857 0
0 0.214286 0
0.23467 0.214286 0
0.23467 0.142857 0
0.469339 0.142857 0
0.23467 0.214286 0
0.469339 0.214286 0
0.469339 0.142857 0
0.704009 0.142857 0
0.469339 0.214286 0
0.704009 0.214286 0
0.704009 0.142857 0
0.938679 0.142857 0
0.704009 0.214286 0
0.938679 0.214286 0
0.938679 0.142857 0
1.17335 0.142857 0
0.938679 0.214286 0
1.17335 0.214286 0
1.17335 0.142857 0
1.40802 0.142857 0
1.17335 0.214286 0
1.40802 0.214286 0
1.40802 0.142857 0
1.64269 0.142857 0
1.40802 0.214286 0
1.64269 0.214286 0
1.64269 0.142857 0
1.87736 0.142857 0
1.64269 0.214286 0
1.87736 0.214286 0
1.87736 0.142857 0
2.11203 0.142857 0
1.87736 0.214286 0
2.11203 0.214286 0
2.11203 0.142857 0
2.3467 0.142857 0
2.11203 0.214286 0
2.3467 0.214286 0
2.3467 0.142857 0
2.58137 0.142857 0
2.3467 0.214286 0
2.58137 0.214286 0
2.58137 0.142857 0
2.81604 0.142857 0
2.58137 0.214286 0
2.81604 0.214286 0
2.81604 0.142857 0
3.05071 0.142857 0
2.81604 0.214286 0
[...]
POINT_DATA 2688
SCALARS x1_displacement double 1
LOOKUP_TABLE default
2.05477 1.9579 2.05477 1.95795 1.9579 1.86347 1.95795 1.86355 1.86347 1.77377 1.86355 1.77384 1.77377 1.69045 1.77384 1.6905 1.69045 1.61364 1.6905 1.61366 1.61364 1.54108 1.61366 1.54108 1.54108 1.46852 1.54108 1.4685 1.46852 1.39171 1.4685 1.39166 1.39171 1.30839 1.39166 1.30831 1.30839 1.21869 1.30831 1.21861 1.21869 1.12426 1.21861 1.12421 1.12426 1.02739 1.12421 1.02739 1.02739 0.93051 1.02739 0.930561 0.93051 0.836083 0.930561 0.836161 0.836083 0.746385 0.836161 0.746458 0.746385 0.663066 0.746458 0.663114 0.663066 0.586251 0.663114 0.586271 0.586251 0.513693 0.586271 0.513693 0.513693 0.441135 0.513693 0.441114 0.441135 0.36432 0.441114 0.364272 0.36432 0.281001 0.364272 0.280928 0.281001 0.191303 0.280928 0.191225 0.191303 0.0968754 0.191225 0.0968249 0.0968754 0 0.0968249 0 0 -0.0968754 0 -0.0968249 -0.0968754 -0.191303 -0.0968249 -0.191225 -0.191303 -0.281001 -0.191225 -0.280928 -0.281001 -0.36432 -0.280928 -0.364272 -0.36432 -0.441135 -0.364272 -0.441114 -0.441135 -0.513693 -0.441114 -0.513693 -0.513693 -0.586251 -0.513693 -0.586271 -0.586251 -0.663066 -0.586271 -0.663114 -0.663066 -0.746385 -0.663114 -0.746458 -0.746385 -0.836083 -0.746458 -0.836161 -0.836083 -0.93051 -0.836161 -0.930561 -0.93051 -1.02739 -0.930561 -1.02739 -1.02739 -1.12426 -1.02739 -1.12421 -1.12426 -1.21869 -1.12421 -1.21861 -1.21869 -1.30839 -1.21861 -1.30831 -1.30839 -1.39171 -1.30831 -1.39166 -1.39171 -1.46852 -1.39166 -1.4685 -1.46852 -1.54108 -1.4685 -1.54108 -1.54108 -1.61364 -1.54108 -1.61366 -1.61364 -1.69045 -1.61366 -1.6905 -1.69045 -1.77377 -1.6905 -1.77384 -1.77377 -1.86347 -1.77384 -1.86355 -1.86347 -1.9579 -1.86355 -1.95795 -1.9579 -2.05477 -1.95795 -2.05477 2.05477 1.95795 2.05477 1.95812 1.95795 1.86355 1.95812 1.86382 1.86355 1.77384 1.86382 1.7741 1.77384 1.6905 1.7741 1.69067 1.6905 1.61366 1.69067 1.61373 1.61366 1.54108 1.61373 1.54108 1.54108 1.4685 1.54108 1.46843 1.4685 1.39166 1.46843 1.39149 1.39166 1.30831 1.39149 1.30805 1.30831 1.21861 1.30805 1.21834 1.21861 1.12421 1.21834 1.12404 1.12421 1.02739 1.12404 1.02739 1.02739 0.930561 1.02739 0.930736 0.930561 0.836161 0.930736 0.836433 0.836161 0.746458 0.836433 0.746718 0.746458 0.663114 0.746718 0.663283 0.663114 0.586271 0.663283 0.586343 0.586271 0.513693 0.586343 0.513693 0.513693 0.441114 0.513693 0.441043 0.441114 0.364272 0.441043 0.364102 0.364272 0.280928 0.364102 0.280668 0.280928 0.191225 0.280668 0.190953 0.191225 0.0968249 0.190953 0.0966495 0.0968249 0 0.0966495 0 0 -0.0968249 0 -0.0966495 -0.0968249 -0.191225 -0.0966495 -0.190953 -0.191225 -0.280928 -0.190953 -0.280668 -0.280928 -0.364272 -0.280668 -0.364102 -0.364272 -0.441114 -0.364102 -0.441043 -0.441114 -0.513693 -0.441043 -0.513693 -0.513693 -0.586271 -0.513693 -0.586343 -0.586271 -0.663114 -0.586343 -0.663283 -0.663114 -0.746458 -0.663283 -0.746718 -0.746458 -0.836161 -0.746718 -0.836433 -0.836161 -0.930561 -0.836433 -0.930736 -0.930561 -1.02739 -0.930736 -1.02739 -1.02739 -1.12421 -1.02739 -1.12404 -1.12421 -1.21861 -1.12404 -1.21834 -1.21861 -1.30831 -1.21834 -1.30805 -1.30831 -1.39166 -1.30805 -1.39149 -1.39166 -1.4685 -1.39149 -1.46843 -1.4685 -1.54108 -1.46843 -1.54108 -1.54108 -1.61366 -1.54108 -1.61373 -1.61366 -1.6905 -1.61373 -1.69067 -1.6905 -1.77384 -1.69067 -1.7741 -1.77384 -1.86355 -1.7741 -1.86382 -1.86355 -1.95795 -1.86382 -1.95812 -1.95795 -2.05477 -1.95812 -2.05477 2.05477 1.95812 2.05477 1.95844 1.95812 1.86382 1.95844 1.86431 1.86382 1.7741 1.86431 1.77457 1.7741 1.69067 1.77457 1.69097 1.69067 1.61373 1.69097 1.61385 1.61373 1.54108 1.61385 1.54108 1.54108 1.46843 1.54108 1.4683 1.46843 1.39149 1.4683 1.39119 1.39149 1.30805 1.39119 1.30759 1.30805 1.21834 1.30759 1.21785 1.21834 1.12404 1.21785 1.12372 1.12404 1.02739 1.12372 1.02739 1.02739 0.930736 1.02739 0.93105 0.930736 0.836433 0.93105 0.836921 0.836433 0.746718 0.836921 0.747181 0.746718 0.663283 0.747181 0.663584 0.663283 0.586343 0.663584 0.586467 0.586343 0.513693 0.586467 0.513693 0.513693 0.441043 0.513693 0.440919 0.441043 0.364102 0.440919 0.363802 0.364102 0.280668 0.363802 0.280205 0.280668 0.190953 0.280205 0.190465 0.190953 0.0966495 0.190465 0.0963359 0.0966495 0 0.0963359 0 0 -0.0966495 0 -0.0963359 -0.0966495 -0.190953 -0.0963359 -0.190465 -0.190953 -0.280668 -0.190465 -0.280205 -0.280668 -0.364102 -0.280205 -0.363802 -0.364102 -0.441043 -0.363802 -0.440919 -0.441043 -0.513693 -0.440919 -0.513693 -0.513693 -0.586343 -0.513693 -0.586467 -0.586343 -0.663283 -0.586467 -0.663584 -0.663283 -0.746718 -0.663584 -0.747181 -0.746718 -0.836433 -0.747181 -0.836921 -0.836433 -0.930736 -0.836921 -0.93105 -0.930736 -1.02739 -0.93105 -1.02739 -1.02739 -1.12404 -1.02739 -1.12372 -1.12404 -1.21834 -1.12372 -1.21785 -1.21834 -1.30805 -1.21785 -1.30759 -1.30805 -1.39149 -1.30759 -1.39119 -1.39149 -1.46843 -1.39119 -1.4683 -1.46843 -1.54108 -1.4683 -1.54108 -1.54108 -1.61373 -1.54108 -1.61385 -1.61373 -1.69067 -1.61385 -1.69097 -1.69067 -1.7741 -1.69097 -1.77457 -1.7741 -1.86382 -1.77457 -1.86431 -1.86382 -1.95812 -1.86431 -1.95844 -1.95812 -2.05477 -1.95844 -2.05477 2.05477 1.95844 2.05477 1.95892 1.95844 1.86431 1.95892 1.86507 1.86431 1.77457 1.86507 1.7753 1.77457 1.69097 1.7753 1.69145 1.69097 1.61385 1.69145 1.61405 1.61385 1.54108 1.61405 1.54108 1.54108 1.4683 1.54108 1.4681 1.4683 1.39119 1.4681 1.39071 1.39119 1.30759 1.39071 1.30686 1.30759 1.21785 1.30686 1.21709 1.21785 1.12372 1.21709 1.12324 1.12372 1.02739 1.12324 1.02739 1.02739 0.93105 1.02739 0.931535 0.93105 0.836921 0.931535 0.837681 0.836921 0.747181 0.837681 0.747912 0.747181 0.663584 0.747912 0.664064 0.663584 0.586467 0.664064 0.586668 0.586467 0.513693 0.586668 0.513693 0.513693 0.440919 0.513693 0.440718 0.440919 0.363802 0.440718 0.363322 0.363802 0.280205 0.363322 0.279474 0.280205 0.190465 0.279474 0.189705 0.190465 0.0963359 0.189705 0.0958506 0.0963359 0 0.0958506 0 0 -0.0963359 0 -0.0958506 -0.0963359 -0.190465 -0.0958506 -0.189705 -0.190465 -0.280205 -0.189705 -0.279474 -0.280205 -0.363802 -0.279474 -0.363322 -0.363802 -0.440919 -0.363322 -0.440718 -0.440919 -0.513693 -0.440718 -0.513693 -0.513693 -0.586467 -0.513693 -0.586668 -0.586467 -0.663584 -0.586668 -0.664064 -0.663584 -0.747181 -0.664064 -0.747912 -0.747181 -0.836921 -0.747912 -0.837681 -0.836921 -0.93105 -0.837681 -0.931535 -0.93105 -1.02739 -0.931535 -1.02739 -1.02739 -1.12372 -1.02739 -1.12324 -1.12372 -1.21785 -1.12324 -1.21709 -1.21785 -1.30759 -1.21709 -1.30686 -1.30759 -1.39119 -1.30686 -1.39071 -1.39119 -1.4683 -1.39071 -1.4681 -1.4683 -1.54108 -1.4681 -1.54108 -1.54108 -1.61385 -1.54108 -1.61405 -1.61385 -1.69097 -1.61405 -1.69145 -1.69097 -1.77457 -1.69145 -1.7753 -1.77457 -1.86431 -1.7753 -1.86507 -1.86431 -1.95844 -1.86507 -1.95892 -1.95844 -2.05477 -1.95892 -2.05477 2.05477 1.95892 2.05477 1.95963 1.95892 1.86507 1.95963 1.86619 1.86507 1.7753 1.86619 1.7764 1.7753 1.69145 1.7764 1.6922 1.69145 1.61405 1.6922 1.61438 1.61405 1.54108 1.61438 1.54108 1.54108 1.4681 1.54108 1.46778 1.4681 1.39071 1.46778 1.38996 1.39071 1.30686 1.38996 1.30576 1.30686 1.21709 1.30576 1.21597 1.21709 1.12324 1.21597 1.12253 1.12324 1.02739 1.12253 1.02739 1.02739 0.931535 1.02739 0.932244 0.931535 0.837681 0.932244 0.838805 0.837681 0.747912 0.838805 0.749014 0.747912 0.664064 0.749014 0.66481 0.664064 0.586668 0.66481 0.586992 0.586668 0.513693 0.586992 0.513693 0.513693 0.440718 0.513693 0.440394 0.440718 0.363322 0.440394 0.362576 0.363322 0.279474 0.362576 0.278372 0.279474 0.189705 0.278372 0.188581 0.189705 0.0958506 0.188581 0.095142 0.0958506 0 0.095142 0 0 -0.0958506 0 -0.095142 -0.0958506 -0.189705 -0.095142 -0.188581 -0.189705 -0.279474 -0.188581 -0.278372 -0.279474 -0.363322 -0.278372 -0.362576 -0.363322 -0.440718 -0.362576 -0.440394 -0.440718 -0.513693 -0.440394 -0.513693 -0.513693 -0.586668 -0.513693 -0.586992 -0.586668 -0.664064 -0.586992 -0.66481 -0.664064 -0.747912 -0.66481 -0.749014 -0.747912 -0.837681 -0.749014 -0.838805 -0.837681 -0.931535 -0.838805 -0.932244 -0.931535 -1.02739 -0.932244 -1.02739 -1.02739 -1.12324 -1.02739 -1.12253 -1.12324 -1.21709 -1.12253 -1.21597 -1.21709 -1.30686 -1.21597 -1.30576 -1.30686 -1.39071 -1.30576 -1.38996 -1.39071 -1.4681 -1.38996 -1.46778 -1.4681 -1.54108 -1.46778 -1.54108 -1.54108 -1.61405 -1.54108 -1.61438 -1.61405 -1.69145 -1.61438 -1.6922 -1.69145 -1.7753 -1.6922 -1.7764 -1.7753 -1.86507 -1.7764 -1.86619 -1.86507 -1.95892 -1.86619 -1.95963 -1.95892 -2.05477 -1.95963 -2.05477 2.05477 1.95963 2.05477 1.96063 1.95963 1.86619 1.96063 1.8678 1.86619 1.7764 1.8678 1.77802 1.7764 1.6922 1.77802 1.69333 1.6922 1.61438 1.69333 1.61489 1.61438 1.54108 1.61489 1.54108 1.54108 1.46778 1.54108 1.46727 1.46778 1.38996 1.46727 1.38883 1.38996 1.30576 1.38883 1.30414 1.30576 1.21597 1.30414 1.21436 1.21597 1.12253 1.21436 1.12153 1.12253 1.02739 1.12153 1.02739 1.02739 0.932244 1.02739 0.933242 0.932244 0.838805 0.933242 0.840413 0.838805 0.749014 0.840413 0.750632 0.749014 0.66481 0.750632 0.665946 0.66481 0.586992 0.665946 0.587506 0.586992 0.513693 0.587506 0.513693 0.513693 0.440394 0.513693 0.439879 0.440394 0.362576 0.439879 0.36144 0.362576 0.278372 0.36144 0.276753 0.278372 0.188581 0.276753 0.186973 0.188581 0.095142 0.186973 0.0941437 0.095142 0 0.0941437 0 0 -0.095142 0 -0.0941437 -0.095142 -0.188581 -0.0941437 -0.186973 -0.188581 -0.278372 -0.186973 -0.276753 -0.278372 -0.362576 -0.276753 -0.36144 -0.362576 -0.440394 -0.36144 -0.439879 -0.440394 -0.513693 -0.439879 -0.513693 -0.513693 -0.586992 -0.513693 -0.587506 -0.586992 -0.66481 -0.587506 -0.665946 -0.66481 -0.749014 -0.665946 -0.750632 -0.749014 -0.838805 -0.750632 -0.840413 -0.838805 -0.932244 -0.840413 -0.933242 -0.932244 -1.02739 -0.933242 -1.02739 -1.02739 -1.12253 -1.02739 -1.12153 -1.12253 -1.21597 -1.12153 -1.21436 -1.21597 -1.30576 -1.21436 -1.30414 -1.30576 -1.38996 -1.30414 -1.38883 -1.38996 -1.46778 -1.38883 -1.46727 -1.46778 -1.54108 -1.46727 -1.54108 -1.54108 -1.61438 -1.54108 -1.61489 -1.61438 -1.6922 -1.61489 -1.69333 -1.6922 -1.7764 -1.69333 -1.77802 -1.7764 -1.86619 -1.77802 -1.8678 -1.86619 -1.95963 -1.8678 -1.96063 -1.95963 -2.05477 -1.96063 -2.05477 2.05477 1.96063 2.05477 1.96199 1.96063 1.8678 1.96199 1.87004 1.8678 1.77802 1.87004 1.78034 1.77802 1.69333 1.78034 1.69502 1.69333 1.61489 1.69502 1.61569 1.61489 1.54108 1.61569 1.54108 1.54108 1.46727 1.54108 1.46647 1.46727 1.38883 1.46647 1.38713 1.38883 1.30414 1.38713 1.30182 1.30414 1.21436 1.30182 1.21212 1.21436 1.12153 1.21212 1.12016 1.12153 1.02739 1.12016 1.02739 1.02739 0.933242 1.02739 0.934609 0.933242 0.840413 0.934609 0.842654 0.840413 0.750632 0.842654 0.752955 0.750632 0.665946 0.752955 0.667637 0.665946 0.587506 0.667637 0.588304 0.587506 0.513693 0.588304 0.513693 0.513693 0.439879 0.513693 0.439082 0.439879 0.36144 0.439082 0.359749 0.36144 0.276753 0.359749 0.274431 0.276753 0.186973 0.274431 0.184731 0.186973 0.0941437 0.184731 0.092777 0.0941437 0 0.092777 0 0 -0.0941437 0 -0.092777 -0.0941437 -0.186973 -0.092777 -0.184731 -0.186973 -0.276753 -0.184731 -0.274431 -0.276753 -0.36144 -0.274431 -0.359749 -0.36144 -0.439879 -0.359749 -0.439082 -0.439879 -0.513693 -0.439082 -0.513693 -0.513693 -0.587506 -0.513693 -0.588304 -0.587506 -0.665946 -0.588304 -0.667637 -0.665946 -0.750632 -0.667637 -0.752955 -0.750632 -0.840413 -0.752955 -0.842654 -0.840413 -0.933242 -0.842654 -0.934609 -0.933242 -1.02739 -0.934609 -1.02739 -1.02739 -1.12153 -1.02739 -1.12016 -1.12153 -1.21436 -1.12016 -1.21212 -1.21436 -1.30414 -1.21212 -1.30182 -1.30414 -1.38883 -1.30182 -1.38713 -1.38883 -1.46727 -1.38713 -1.46647 -1.46727 -1.54108 -1.46647 -1.54108 -1.54108 -1.61489 -1.54108 -1.61569 -1.61489 -1.69333 -1.61569 -1.69502 -1.69333 -1.77802 -1.69502 -1.78034 -1.77802 -1.8678 -1.78034 -1.87004 -1.8678 -1.96063 -1.87004 -1.96199 -1.96063 -2.05477 -1.96199 -2.05477 2.05477 1.96199 2.05477 1.96382 1.96199 1.87004 1.96382 1.87309 1.87004 1.78034 1.87309 1.7836 1.78034 1.69502 1.7836 1.69749 1.69502 1.61569 1.69749 1.6169 1.61569 1.54108 1.6169 1.54108 1.54108 1.46647 1.54108 1.46526 1.46647 1.38713 1.46526 1.38467 1.38713 1.30182 1.38467 1.29856 1.30182 1.21212 1.29856 1.20907 1.21212 1.12016 1.20907 1.11834 1.12016 1.02739 1.11834 1.02739 1.02739 0.934609 1.02739 0.93643 0.934609 0.842654 0.93643 0.845704 0.842654 0.752955 0.845704 0.756216 0.752955 0.667637 0.756216 0.670106 0.667637 0.588304 0.670106 0.589512 0.588304 0.513693 0.589512 0.513693 0.513693 0.439082 0.513693 0.437873 0.439082 0.359749 0.437873 0.35728 0.359749 0.274431 0.35728 0.27117 0.274431 0.184731 0.27117 0.181682 0.184731 0.092777 0.181682 0.0909559 0.092777 0 0.0909559 0 0 -0.092777 0 -0.0909559 -0.092777 -0.184731 -0.0909559 -0.181682 -0.184731 -0.274431 -0.181682 -0.27117 -0.274431 -0.359749 -0.27117 -0.35728 -0.359749 -0.439082 -0.35728 -0.437873 -0.439082 -0.513693 -0.437873 -0.513693 -0.513693 -0.588304 -0.513693 -0.589512 -0.588304 -0.667637 -0.589512 -0.670106 -0.667637 -0.752955 -0.670106 -0.756216 -0.752955 -0.842654 -0.756216 -0.845704 -0.842654 -0.934609 -0.845704 -0.93643 -0.934609 -1.02739 -0.93643 -1.02739 -1.02739 -1.12016 -1.02739 -1.11834 -1.12016 -1.21212 -1.11834 -1.20907 -1.21212 -1.30182 -1.20907 -1.29856 -1.30182 -1.38713 -1.29856 -1.38467 -1.38713 -1.46647 -1.38467 -1.46526 -1.46647 -1.54108 -1.46526 -1.54108 -1.54108 -1.61569 -1.54108 -1.6169 -1.61569 -1.69502 -1.6169 -1.69749 -1.69502 -1.78034 -1.69749 -1.7836 -1.78034 -1.87004 -1.7836 -1.87309 -1.87004 -1.96199 -1.87309 -1.96382 -1.96199 -2.05477 -1.96382 -2.05477 2.05477 1.96382 2.05477 1.96618 1.96382 1.87309 1.96618 1.87714 1.87309 1.7836 1.87714 1.78809 1.7836 1.69749 1.78809 1.70103 1.69749 1.6169 1.70103 1.61869 1.6169 1.54108 1.61869 1.54108 1.54108 1.46526 1.54108 1.46346 1.46526 1.38467 1.46346 1.38113 1.38467 1.29856 1.38113 1.29407 1.29856 1.20907 1.29407 1.20502 1.20907 1.11834 1.20502 1.11598 1.11834 1.02739 1.11598 1.02739 1.02739 0.93643 1.02739 0.938792 0.93643 0.845704 0.938792 0.849753 0.845704 0.756216 0.849753 0.760701 0.756216 0.670106 0.760701 0.673644 0.670106 0.589512 0.673644 0.591309 0.589512 0.513693 0.591309 0.513693 0.513693 0.437873 0.513693 0.436077 0.437873 0.35728 0.436077 0.353742 0.35728 0.27117 0.353742 0.266685 0.27117 0.181682 0.266685 0.177632 0.181682 0.0909559 0.177632 0.0885938 0.0909559 0 0.0885938 0 0 -0.0909559 0 -0.0885938 -0.0909559 -0.181682 -0.0885938 -0.177632 -0.181682 -0.27117 -0.177632 -0.266685 -0.27117 -0.35728 -0.266685 -0.353742 -0.35728 -0.437873 -0.353742 -0.436077 -0.437873 -0.513693 -0.436077 -0.513693 -0.513693 -0.589512 -0.513693 -0.591309 -0.589512 -0.670106 -0.591309 -0.673644 -0.670106 -0.756216 -0.673644 -0.760701 -0.756216 -0.845704 -0.760701 -0.849753 -0.845704 -0.93643 -0.849753 -0.938792 -0.93643 -1.02739 -0.938792 -1.02739 -1.02739 -1.11834 -1.02739 -1.11598 -1.11834 -1.20907 -1.11598 -1.20502 -1.20907 -1.29856 -1.20502 -1.29407 -1.29856 -1.38467 -1.29407 -1.38113 -1.38467 -1.46526 -1.38113 -1.46346 -1.46526 -1.54108 -1.46346 -1.54108 -1.54108 -1.6169 -1.54108 -1.61869 -1.6169 -1.69749 -1.61869 -1.70103 -1.69749 -1.7836 -1.70103 -1.78809 -1.7836 -1.87309 -1.78809 -1.87714 -1.87309 -1.96382 -1.87714 -1.96618 -1.96382 -2.05477 -1.96618 -2.05477 2.05477 1.96618 2.05477 1.96916 1.96618 1.87714 1.96916 1.88239 1.87714 1.78809 1.88239 1.79414 1.78809 1.70103 1.79414 1.70603 1.70103 1.61869 1.70603 1.62133 1.61869 1.54108 1.62133 1.54108 1.54108 1.46346 1.54108 1.46083 1.46346 1.38113 1.46083 1.37613 1.38113 1.29407 1.37613 1.28802 1.29407 1.20502 1.28802 1.19977 1.20502 1.11598 1.19977 1.113 1.11598 1.02739 1.113 1.02739 1.02739 0.938792 1.02739 0.941772 0.938792 0.849753 0.941772 0.855 0.849753 0.760701 0.855 0.766752 0.760701 0.673644 0.766752 0.678641 0.673644 0.591309 0.678641 0.593947 0.591309 0.513693 0.593947 0.513693 0.513693 0.436077 0.513693 0.433439 0.436077 0.353742 0.433439 0.348745 0.353742 0.266685 0.348745 0.260634 0.266685 0.177632 0.260634 0.172386 0.177632 0.0885938 0.172386 0.0856135 0.0885938 0 0.0856135 0 0 -0.0885938 0 -0.0856135 -0.0885938 -0.177632 -0.0856135 -0.172386 -0.177632 -0.266685 -0.172386 -0.260634 -0.266685 -0.353742 -0.260634 -0.348745 -0.353742 -0.436077 -0.348745 -0.433439 -0.436077 -0.513693 -0.433439 -0.513693 -0.513693 -0.591309 -0.513693 -0.593947 -0.591309 -0.673644 -0.593947 -0.678641 -0.673644 -0.760701 -0.678641 -0.766752 -0.760701 -0.849753 -0.766752 -0.855 -0.849753 -0.938792 -0.855 -0.941772 -0.938792 -1.02739 -0.941772 -1.02739 -1.02739 -1.11598 -1.02739 -1.113 -1.11598 -1.20502 -1.113 -1.19977 -1.20502 -1.29407 -1.19977 -1.28802 -1.29407 -1.38113 -1.28802 -1.37613 -1.38113 -1.46346 -1.37613 -1.46083 -1.46346 -1.54108 -1.46083 -1.54108 -1.54108 -1.61869 -1.54108 -1.62133 -1.61869 -1.70103 -1.62133 -1.70603 -1.70103 -1.78809 -1.70603 -1.79414 -1.78809 -1.87714 -1.79414 -1.88239 -1.87714 -1.96618 -1.88239 -1.96916 -1.96618 -2.05477 -1.96916 -2.05477 2.05477 1.96916 2.05477 1.97281 1.96916 1.88239 1.97281 1.88901 1.88239 1.79414 1.88901 1.80214 1.79414 1.70603 1.80214 1.71301 1.70603 1.62133 1.71301 1.62519 1.62133 1.54108 1.62519 1.54108 1.54108 1.46083 1.54108 1.45697 1.46083 1.37613 1.45697 1.36915 1.37613 1.28802 1.36915 1.28001 1.28802 1.19977 1.28001 1.19315 1.19977 1.113 1.19315 1.10934 1.113 1.02739 1.10934 1.02739 1.02739 0.941772 1.02739 0.945427 0.941772 0.855 0.945427 0.861624 0.855 0.766752 0.861624 0.774759 0.766752 0.678641 0.774759 0.685624 0.678641 0.593947 0.685624 0.597803 0.593947 0.513693 0.597803 0.513693 0.513693 0.433439 0.513693 0.429583 0.433439 0.348745 0.429583 0.341762 0.348745 0.260634 0.341762 0.252627 0.260634 0.172386 0.252627 0.165762 0.172386 0.0856135 0.165762 0.0819586 0.0856135 0 0.0819586 0 0 -0.0856135 0 -0.0819586 -0.0856135 -0.172386 -0.0819586 -0.165762 -0.172386 -0.260634 -0.165762 -0.252627 -0.260634 -0.348745 -0.252627 -0.341762 -0.348745 -0.433439 -0.341762 -0.429583 -0.433439 -0.513693 -0.429583 -0.513693 -0.513693 -0.593947 -0.513693 -0.597803 -0.593947 -0.678641 -0.597803 -0.685624 -0.678641 -0.766752 -0.685624 -0.774759 -0.766752 -0.855 -0.774759 -0.861624 -0.855 -0.941772 -0.861624 -0.945427 -0.941772 -1.02739 -0.945427 -1.02739 -1.02739 -1.113 -1.02739 -1.10934 -1.113 -1.19977 -1.10934 -1.19315 -1.19977 -1.28802 -1.19315 -1.28001 -1.28802 -1.37613 -1.28001 -1.36915 -1.37613 -1.46083 -1.36915 -1.45697 -1.46083 -1.54108 -1.45697 -1.54108 -1.54108 -1.62133 -1.54108 -1.62519 -1.62133 -1.70603 -1.62519 -1.71301 -1.70603 -1.79414 -1.71301 -1.80214 -1.79414 -1.88239 -1.80214 -1.88901 -1.88239 -1.96916 -1.88901 -1.97281 -1.96916 -2.05477 -1.97281 -2.05477 2.05477 1.97281 2.05477 1.97717 1.97281 1.88901 1.97717 1.89714 1.88901 1.80214 1.89714 1.81252 1.80214 1.71301 1.81252 1.7227 1.71301 1.62519 1.7227 1.63086 1.62519 1.54108 1.63086 1.54108 1.54108 1.45697 1.54108 1.4513 1.45697 1.36915 1.4513 1.35946 1.36915 1.28001 1.35946 1.26964 1.28001 1.19315 1.26964 1.18501 1.19315 1.10934 1.18501 1.10499 1.10934 1.02739 1.10499 1.02739 1.02739 0.945427 1.02739 0.949782 0.945427 0.861624 0.949782 0.869757 0.861624 0.774759 0.869757 0.785136 0.774759 0.685624 0.785136 0.695316 0.685624 0.597803 0.695316 0.603473 0.597803 0.513693 0.603473 0.513693 0.513693 0.429583 0.513693 0.423913 0.429583 0.341762 0.423913 0.33207 0.341762 0.252627 0.33207 0.24225 0.252627 0.165762 0.24225 0.157629 0.165762 0.0819586 0.157629 0.0776043 0.0819586 0 0.0776043 0 0 -0.0819586 0 -0.0776043 -0.0819586 -0.165762 -0.0776043 -0.157629 -0.165762 -0.252627 -0.157629 -0.24225 -0.252627 -0.341762 -0.24225 -0.33207 -0.341762 -0.429583 -0.33207 -0.423913 -0.429583 -0.513693 -0.423913 -0.513693 -0.513693 -0.597803 -0.513693 -0.603473 -0.597803 -0.685624 -0.603473 -0.695316 -0.685624 -0.774759 -0.695316 -0.785136 -0.774759 -0.861624 -0.785136 -0.869757 -0.861624 -0.945427 -0.869757 -0.949782 -0.945427 -1.02739 -0.949782 -1.02739 -1.02739 -1.10934 -1.02739 -1.10499 -1.10934 -1.19315 -1.10499 -1.18501 -1.19315 -1.28001 -1.18501 -1.26964 -1.28001 -1.36915 -1.26964 -1.35946 -1.36915 -