# vtk DataFile Version 3.0
#This file was generated by the deal.II library on 2017/9/27 at 13:19:22
ASCII
DATASET UNSTRUCTURED_GRID

POINTS 2688 double
-5.63207 0 0
-5.3974 0 0
-5.63207 0.0714286 0
-5.3974 0.0714286 0
-5.3974 0 0
-5.16273 0 0
-5.3974 0.0714286 0
-5.16273 0.0714286 0
-5.16273 0 0
-4.92806 0 0
-5.16273 0.0714286 0
-4.92806 0.0714286 0
-4.92806 0 0
-4.69339 0 0
-4.92806 0.0714286 0
-4.69339 0.0714286 0
-4.69339 0 0
-4.45872 0 0
-4.69339 0.0714286 0
-4.45872 0.0714286 0
-4.45872 0 0
-4.22405 0 0
-4.45872 0.0714286 0
-4.22405 0.0714286 0
-4.22405 0 0
-3.98938 0 0
-4.22405 0.0714286 0
-3.98938 0.0714286 0
-3.98938 0 0
-3.75472 0 0
-3.98938 0.0714286 0
-3.75472 0.0714286 0
-3.75472 0 0
-3.52005 0 0
-3.75472 0.0714286 0
-3.52005 0.0714286 0
-3.52005 0 0
-3.28538 0 0
-3.52005 0.0714286 0
-3.28538 0.0714286 0
-3.28538 0 0
-3.05071 0 0
-3.28538 0.0714286 0
-3.05071 0.0714286 0
-3.05071 0 0
-2.81604 0 0
-3.05071 0.0714286 0
-2.81604 0.0714286 0
-2.81604 0 0
-2.58137 0 0
-2.81604 0.0714286 0
-2.58137 0.0714286 0
-2.58137 0 0
-2.3467 0 0
-2.58137 0.0714286 0
-2.3467 0.0714286 0
-2.3467 0 0
-2.11203 0 0
-2.3467 0.0714286 0
-2.11203 0.0714286 0
-2.11203 0 0
-1.87736 0 0
-2.11203 0.0714286 0
-1.87736 0.0714286 0
-1.87736 0 0
-1.64269 0 0
-1.87736 0.0714286 0
-1.64269 0.0714286 0
-1.64269 0 0
-1.40802 0 0
-1.64269 0.0714286 0
-1.40802 0.0714286 0
-1.40802 0 0
-1.17335 0 0
-1.40802 0.0714286 0
-1.17335 0.0714286 0
-1.17335 0 0
-0.938679 0 0
-1.17335 0.0714286 0
-0.938679 0.0714286 0
-0.938679 0 0
-0.704009 0 0
-0.938679 0.0714286 0
-0.704009 0.0714286 0
-0.704009 0 0
-0.469339 0 0
-0.704009 0.0714286 0
-0.469339 0.0714286 0
-0.469339 0 0
-0.23467 0 0
-0.469339 0.0714286 0
-0.23467 0.0714286 0
-0.23467 0 0
0 0 0
-0.23467 0.0714286 0
0 0.0714286 0
0 0 0
0.23467 0 0
0 0.0714286 0
0.23467 0.0714286 0
0.23467 0 0
0.469339 0 0
0.23467 0.0714286 0
0.469339 0.0714286 0
0.469339 0 0
0.704009 0 0
0.469339 0.0714286 0
0.704009 0.0714286 0
0.704009 0 0
0.938679 0 0
0.704009 0.0714286 0
0.938679 0.0714286 0
0.938679 0 0
1.17335 0 0
0.938679 0.0714286 0
1.17335 0.0714286 0
1.17335 0 0
1.40802 0 0
1.17335 0.0714286 0
1.40802 0.0714286 0
1.40802 0 0
1.64269 0 0
1.40802 0.0714286 0
1.64269 0.0714286 0
1.64269 0 0
1.87736 0 0
1.64269 0.0714286 0
1.87736 0.0714286 0
1.87736 0 0
2.11203 0 0
1.87736 0.0714286 0
2.11203 0.0714286 0
2.11203 0 0
2.3467 0 0
2.11203 0.0714286 0
2.3467 0.0714286 0
2.3467 0 0
2.58137 0 0
2.3467 0.0714286 0
2.58137 0.0714286 0
2.58137 0 0
2.81604 0 0
2.58137 0.0714286 0
2.81604 0.0714286 0
2.81604 0 0
3.05071 0 0
2.81604 0.0714286 0
3.05071 0.0714286 0
3.05071 0 0
3.28538 0 0
3.05071 0.0714286 0
3.28538 0.0714286 0
3.28538 0 0
3.52005 0 0
3.28538 0.0714286 0
3.52005 0.0714286 0
3.52005 0 0
3.75472 0 0
3.52005 0.0714286 0
3.75472 0.0714286 0
3.75472 0 0
3.98938 0 0
3.75472 0.0714286 0
3.98938 0.0714286 0
3.98938 0 0
4.22405 0 0
3.98938 0.0714286 0
4.22405 0.0714286 0
4.22405 0 0
4.45872 0 0
4.22405 0.0714286 0
4.45872 0.0714286 0
4.45872 0 0
4.69339 0 0
4.45872 0.0714286 0
4.69339 0.0714286 0
4.69339 0 0
4.92806 0 0
4.69339 0.0714286 0
4.92806 0.0714286 0
4.92806 0 0
5.16273 0 0
4.92806 0.0714286 0
5.16273 0.0714286 0
5.16273 0 0
5.3974 0 0
5.16273 0.0714286 0
5.3974 0.0714286 0
5.3974 0 0
5.63207 0 0
5.3974 0.0714286 0
5.63207 0.0714286 0
-5.63207 0.0714286 0
-5.3974 0.0714286 0
-5.63207 0.142857 0
-5.3974 0.142857 0
-5.3974 0.0714286 0
-5.16273 0.0714286 0
-5.3974 0.142857 0
-5.16273 0.142857 0
-5.16273 0.0714286 0
-4.92806 0.0714286 0
-5.16273 0.142857 0
-4.92806 0.142857 0
-4.92806 0.0714286 0
-4.69339 0.0714286 0
-4.92806 0.142857 0
-4.69339 0.142857 0
-4.69339 0.0714286 0
-4.45872 0.0714286 0
-4.69339 0.142857 0
-4.45872 0.142857 0
-4.45872 0.0714286 0
-4.22405 0.0714286 0
-4.45872 0.142857 0
-4.22405 0.142857 0
-4.22405 0.0714286 0
-3.98938 0.0714286 0
-4.22405 0.142857 0
-3.98938 0.142857 0
-3.98938 0.0714286 0
-3.75472 0.0714286 0
-3.98938 0.142857 0
-3.75472 0.142857 0
-3.75472 0.0714286 0
-3.52005 0.0714286 0
-3.75472 0.142857 0
-3.52005 0.142857 0
-3.52005 0.0714286 0
-3.28538 0.0714286 0
-3.52005 0.142857 0
-3.28538 0.142857 0
-3.28538 0.0714286 0
-3.05071 0.0714286 0
-3.28538 0.142857 0
-3.05071 0.142857 0
-3.05071 0.0714286 0
-2.81604 0.0714286 0
-3.05071 0.142857 0
-2.81604 0.142857 0
-2.81604 0.0714286 0
-2.58137 0.0714286 0
-2.81604 0.142857 0
-2.58137 0.142857 0
-2.58137 0.0714286 0
-2.3467 0.0714286 0
-2.58137 0.142857 0
-2.3467 0.142857 0
-2.3467 0.0714286 0
-2.11203 0.0714286 0
-2.3467 0.142857 0
-2.11203 0.142857 0
-2.11203 0.0714286 0
-1.87736 0.0714286 0
-2.11203 0.142857 0
-1.87736 0.142857 0
-1.87736 0.0714286 0
-1.64269 0.0714286 0
-1.87736 0.142857 0
-1.64269 0.142857 0
-1.64269 0.0714286 0
-1.40802 0.0714286 0
-1.64269 0.142857 0
-1.40802 0.142857 0
-1.40802 0.0714286 0
-1.17335 0.0714286 0
-1.40802 0.142857 0
-1.17335 0.142857 0
-1.17335 0.0714286 0
-0.938679 0.0714286 0
-1.17335 0.142857 0
-0.938679 0.142857 0
-0.938679 0.0714286 0
-0.704009 0.0714286 0
-0.938679 0.142857 0
-0.704009 0.142857 0
-0.704009 0.0714286 0
-0.469339 0.0714286 0
-0.704009 0.142857 0
-0.469339 0.142857 0
-0.469339 0.0714286 0
-0.23467 0.0714286 0
-0.469339 0.142857 0
-0.23467 0.142857 0
-0.23467 0.0714286 0
0 0.0714286 0
-0.23467 0.142857 0
0 0.142857 0
0 0.0714286 0
0.23467 0.0714286 0
0 0.142857 0
0.23467 0.142857 0
0.23467 0.0714286 0
0.469339 0.0714286 0
0.23467 0.142857 0
0.469339 0.142857 0
0.469339 0.0714286 0
0.704009 0.0714286 0
0.469339 0.142857 0
0.704009 0.142857 0
0.704009 0.0714286 0
0.938679 0.0714286 0
0.704009 0.142857 0
0.938679 0.142857 0
0.938679 0.0714286 0
1.17335 0.0714286 0
0.938679 0.142857 0
1.17335 0.142857 0
1.17335 0.0714286 0
1.40802 0.0714286 0
1.17335 0.142857 0
1.40802 0.142857 0
1.40802 0.0714286 0
1.64269 0.0714286 0
1.40802 0.142857 0
1.64269 0.142857 0
1.64269 0.0714286 0
1.87736 0.0714286 0
1.64269 0.142857 0
1.87736 0.142857 0
1.87736 0.0714286 0
2.11203 0.0714286 0
1.87736 0.142857 0
2.11203 0.142857 0
2.11203 0.0714286 0
2.3467 0.0714286 0
2.11203 0.142857 0
2.3467 0.142857 0
2.3467 0.0714286 0
2.58137 0.0714286 0
2.3467 0.142857 0
2.58137 0.142857 0
2.58137 0.0714286 0
2.81604 0.0714286 0
2.58137 0.142857 0
2.81604 0.142857 0
2.81604 0.0714286 0
3.05071 0.0714286 0
2.81604 0.142857 0
3.05071 0.142857 0
3.05071 0.0714286 0
3.28538 0.0714286 0
3.05071 0.142857 0
3.28538 0.142857 0
3.28538 0.0714286 0
3.52005 0.0714286 0
3.28538 0.142857 0
3.52005 0.142857 0
3.52005 0.0714286 0
3.75472 0.0714286 0
3.52005 0.142857 0
3.75472 0.142857 0
3.75472 0.0714286 0
3.98938 0.0714286 0
3.75472 0.142857 0
3.98938 0.142857 0
3.98938 0.0714286 0
4.22405 0.0714286 0
3.98938 0.142857 0
4.22405 0.142857 0
4.22405 0.0714286 0
4.45872 0.0714286 0
4.22405 0.142857 0
4.45872 0.142857 0
4.45872 0.0714286 0
4.69339 0.0714286 0
4.45872 0.142857 0
4.69339 0.142857 0
4.69339 0.0714286 0
4.92806 0.0714286 0
4.69339 0.142857 0
4.92806 0.142857 0
4.92806 0.0714286 0
5.16273 0.0714286 0
4.92806 0.142857 0
5.16273 0.142857 0
5.16273 0.0714286 0
5.3974 0.0714286 0
5.16273 0.142857 0
5.3974 0.142857 0
5.3974 0.0714286 0
5.63207 0.0714286 0
5.3974 0.142857 0
5.63207 0.142857 0
-5.63207 0.142857 0
-5.3974 0.142857 0
-5.63207 0.214286 0
-5.3974 0.214286 0
-5.3974 0.142857 0
-5.16273 0.142857 0
-5.3974 0.214286 0
-5.16273 0.214286 0
-5.16273 0.142857 0
-4.92806 0.142857 0
-5.16273 0.214286 0
-4.92806 0.214286 0
-4.92806 0.142857 0
-4.69339 0.142857 0
-4.92806 0.214286 0
-4.69339 0.214286 0
-4.69339 0.142857 0
-4.45872 0.142857 0
-4.69339 0.214286 0
-4.45872 0.214286 0
-4.45872 0.142857 0
-4.22405 0.142857 0
-4.45872 0.214286 0
-4.22405 0.214286 0
-4.22405 0.142857 0
-3.98938 0.142857 0
-4.22405 0.214286 0
-3.98938 0.214286 0
-3.98938 0.142857 0
-3.75472 0.142857 0
-3.98938 0.214286 0
-3.75472 0.214286 0
-3.75472 0.142857 0
-3.52005 0.142857 0
-3.75472 0.214286 0
-3.52005 0.214286 0
-3.52005 0.142857 0
-3.28538 0.142857 0
-3.52005 0.214286 0
-3.28538 0.214286 0
-3.28538 0.142857 0
-3.05071 0.142857 0
-3.28538 0.214286 0
-3.05071 0.214286 0
-3.05071 0.142857 0
-2.81604 0.142857 0
-3.05071 0.214286 0
-2.81604 0.214286 0
-2.81604 0.142857 0
-2.58137 0.142857 0
-2.81604 0.214286 0
-2.58137 0.214286 0
-2.58137 0.142857 0
-2.3467 0.142857 0
-2.58137 0.214286 0
-2.3467 0.214286 0
-2.3467 0.142857 0
-2.11203 0.142857 0
-2.3467 0.214286 0
-2.11203 0.214286 0
-2.11203 0.142857 0
-1.87736 0.142857 0
-2.11203 0.214286 0
-1.87736 0.214286 0
-1.87736 0.142857 0
-1.64269 0.142857 0
-1.87736 0.214286 0
-1.64269 0.214286 0
-1.64269 0.142857 0
-1.40802 0.142857 0
-1.64269 0.214286 0
-1.40802 0.214286 0
-1.40802 0.142857 0
-1.17335 0.142857 0
-1.40802 0.214286 0
-1.17335 0.214286 0
-1.17335 0.142857 0
-0.938679 0.142857 0
-1.17335 0.214286 0
-0.938679 0.214286 0
-0.938679 0.142857 0
-0.704009 0.142857 0
-0.938679 0.214286 0
-0.704009 0.214286 0
-0.704009 0.142857 0
-0.469339 0.142857 0
-0.704009 0.214286 0
-0.469339 0.214286 0
-0.469339 0.142857 0
-0.23467 0.142857 0
-0.469339 0.214286 0
-0.23467 0.214286 0
-0.23467 0.142857 0
0 0.142857 0
-0.23467 0.214286 0
0 0.214286 0
0 0.142857 0
0.23467 0.142857 0
0 0.214286 0
0.23467 0.214286 0
0.23467 0.142857 0
0.469339 0.142857 0
0.23467 0.214286 0
0.469339 0.214286 0
0.469339 0.142857 0
0.704009 0.142857 0
0.469339 0.214286 0
0.704009 0.214286 0
0.704009 0.142857 0
0.938679 0.142857 0
0.704009 0.214286 0
0.938679 0.214286 0
0.938679 0.142857 0
1.17335 0.142857 0
0.938679 0.214286 0
1.17335 0.214286 0
1.17335 0.142857 0
1.40802 0.142857 0
1.17335 0.214286 0
1.40802 0.214286 0
1.40802 0.142857 0
1.64269 0.142857 0
1.40802 0.214286 0
1.64269 0.214286 0
1.64269 0.142857 0
1.87736 0.142857 0
1.64269 0.214286 0
1.87736 0.214286 0
1.87736 0.142857 0
2.11203 0.142857 0
1.87736 0.214286 0
2.11203 0.214286 0
2.11203 0.142857 0
2.3467 0.142857 0
2.11203 0.214286 0
2.3467 0.214286 0
2.3467 0.142857 0
2.58137 0.142857 0
2.3467 0.214286 0
2.58137 0.214286 0
2.58137 0.142857 0
2.81604 0.142857 0
2.58137 0.214286 0
2.81604 0.214286 0
2.81604 0.142857 0
3.05071 0.142857 0
2.81604 0.214286 0
[...]
POINT_DATA 2688
SCALARS x1_displacement double 1
LOOKUP_TABLE default
1.34754 1.25625 1.34754 1.257 1.25625 1.16597 1.257 1.16724 1.16597 1.07986 1.16724 1.08123 1.07986 1.00508 1.08123 1.00606 1.00508 0.952008 1.00606 0.952431 0.952008 0.923629 0.952431 0.92369 0.923629 0.897077 0.92369 0.896762 0.897077 0.848525 0.896762 0.84759 0.848525 0.780386 0.84759 0.77894 0.780386 0.703867 0.77894 0.702312 0.703867 0.627623 0.702312 0.62631 0.627623 0.556371 0.62631 0.55545 0.556371 0.491928 0.55545 0.491384 0.491928 0.434336 0.491384 0.434084 0.434336 0.382682 0.434084 0.382626 0.382682 0.33562 0.382626 0.335677 0.33562 0.291709 0.335677 0.291819 0.291709 0.24965 0.291819 0.249772 0.24965 0.208421 0.249772 0.208532 0.208421 0.167333 0.208532 0.167421 0.167333 0.126001 0.167421 0.126064 0.126001 0.0842911 0.126064 0.0843307 0.0842911 0.0422426 0.0843307 0.0422615 0.0422426 0 0.0422615 0 0 -0.0422426 0 -0.0422615 -0.0422426 -0.0842911 -0.0422615 -0.0843307 -0.0842911 -0.126001 -0.0843307 -0.126064 -0.126001 -0.167333 -0.126064 -0.167421 -0.167333 -0.208421 -0.167421 -0.208532 -0.208421 -0.24965 -0.208532 -0.249772 -0.24965 -0.291709 -0.249772 -0.291819 -0.291709 -0.33562 -0.291819 -0.335677 -0.33562 -0.382682 -0.335677 -0.382626 -0.382682 -0.434336 -0.382626 -0.434084 -0.434336 -0.491928 -0.434084 -0.491384 -0.491928 -0.556371 -0.491384 -0.55545 -0.556371 -0.627623 -0.55545 -0.62631 -0.627623 -0.703867 -0.62631 -0.702312 -0.703867 -0.780386 -0.702312 -0.77894 -0.780386 -0.848525 -0.77894 -0.84759 -0.848525 -0.897077 -0.84759 -0.896762 -0.897077 -0.923629 -0.896762 -0.92369 -0.923629 -0.952008 -0.92369 -0.952431 -0.952008 -1.00508 -0.952431 -1.00606 -1.00508 -1.07986 -1.00606 -1.08123 -1.07986 -1.16597 -1.08123 -1.16724 -1.16597 -1.25625 -1.16724 -1.257 -1.25625 -1.34754 -1.257 -1.34754 1.34754 1.257 1.34754 1.25917 1.257 1.16724 1.25917 1.17097 1.16724 1.08123 1.17097 1.08527 1.08123 1.00606 1.08527 1.00896 1.00606 0.952431 1.00896 0.95358 0.952431 0.92369 0.95358 0.923852 0.92369 0.896762 0.923852 0.895926 0.896762 0.84759 0.895926 0.84487 0.84759 0.77894 0.84487 0.77474 0.77894 0.702312 0.77474 0.697877 0.702312 0.62631 0.697877 0.622636 0.62631 0.55545 0.622636 0.552911 0.55545 0.491384 0.552911 0.489906 0.491384 0.434084 0.489906 0.433415 0.434084 0.382626 0.433415 0.382494 0.382626 0.335677 0.382494 0.335853 0.335677 0.291819 0.335853 0.292135 0.291819 0.249772 0.292135 0.250117 0.249772 0.208532 0.250117 0.208843 0.208532 0.167421 0.208843 0.167667 0.167421 0.126064 0.167667 0.126239 0.126064 0.0843307 0.126239 0.0844403 0.0843307 0.0422615 0.0844403 0.0423135 0.0422615 0 0.0423135 0 0 -0.0422615 0 -0.0423135 -0.0422615 -0.0843307 -0.0423135 -0.0844403 -0.0843307 -0.126064 -0.0844403 -0.126239 -0.126064 -0.167421 -0.126239 -0.167667 -0.167421 -0.208532 -0.167667 -0.208843 -0.208532 -0.249772 -0.208843 -0.250117 -0.249772 -0.291819 -0.250117 -0.292135 -0.291819 -0.335677 -0.292135 -0.335853 -0.335677 -0.382626 -0.335853 -0.382494 -0.382626 -0.434084 -0.382494 -0.433415 -0.434084 -0.491384 -0.433415 -0.489906 -0.491384 -0.55545 -0.489906 -0.552911 -0.55545 -0.62631 -0.552911 -0.622636 -0.62631 -0.702312 -0.622636 -0.697877 -0.702312 -0.77894 -0.697877 -0.77474 -0.77894 -0.84759 -0.77474 -0.84487 -0.84759 -0.896762 -0.84487 -0.895926 -0.896762 -0.92369 -0.895926 -0.923852 -0.92369 -0.952431 -0.923852 -0.95358 -0.952431 -1.00606 -0.95358 -1.00896 -1.00606 -1.08123 -1.00896 -1.08527 -1.08123 -1.16724 -1.08527 -1.17097 -1.16724 -1.257 -1.17097 -1.25917 -1.257 -1.34754 -1.25917 -1.34754 1.34754 1.25917 1.34754 1.26265 1.25917 1.17097 1.26265 1.17701 1.17097 1.08527 1.17701 1.09193 1.08527 1.00896 1.09193 1.01376 1.00896 0.95358 1.01376 0.955406 0.95358 0.923852 0.955406 0.9241 0.923852 0.895926 0.9241 0.894603 0.895926 0.84487 0.894603 0.840396 0.84487 0.77474 0.840396 0.767924 0.77474 0.697877 0.767924 0.69084 0.697877 0.622636 0.69084 0.616929 0.622636 0.552911 0.616929 0.549029 0.552911 0.489906 0.549029 0.487678 0.489906 0.433415 0.487678 0.432427 0.433415 0.382494 0.432427 0.38232 0.382494 0.335853 0.38232 0.336145 0.335853 0.292135 0.336145 0.292636 0.292135 0.250117 0.292636 0.250657 0.250117 0.208843 0.250657 0.209325 0.208843 0.167667 0.209325 0.168048 0.167667 0.126239 0.168048 0.126509 0.126239 0.0844403 0.126509 0.0846084 0.0844403 0.0423135 0.0846084 0.0423931 0.0423135 0 0.0423931 0 0 -0.0423135 0 -0.0423931 -0.0423135 -0.0844403 -0.0423931 -0.0846084 -0.0844403 -0.126239 -0.0846084 -0.126509 -0.126239 -0.167667 -0.126509 -0.168048 -0.167667 -0.208843 -0.168048 -0.209325 -0.208843 -0.250117 -0.209325 -0.250657 -0.250117 -0.292135 -0.250657 -0.292636 -0.292135 -0.335853 -0.292636 -0.336145 -0.335853 -0.382494 -0.336145 -0.38232 -0.382494 -0.433415 -0.38232 -0.432427 -0.433415 -0.489906 -0.432427 -0.487678 -0.489906 -0.552911 -0.487678 -0.549029 -0.552911 -0.622636 -0.549029 -0.616929 -0.622636 -0.697877 -0.616929 -0.69084 -0.697877 -0.77474 -0.69084 -0.767924 -0.77474 -0.84487 -0.767924 -0.840396 -0.84487 -0.895926 -0.840396 -0.894603 -0.895926 -0.923852 -0.894603 -0.9241 -0.923852 -0.95358 -0.9241 -0.955406 -0.95358 -1.00896 -0.955406 -1.01376 -1.00896 -1.08527 -1.01376 -1.09193 -1.08527 -1.17097 -1.09193 -1.17701 -1.17097 -1.25917 -1.17701 -1.26265 -1.25917 -1.34754 -1.26265 -1.34754 1.34754 1.26265 1.34754 1.26734 1.26265 1.17701 1.26734 1.18534 1.17701 1.09193 1.18534 1.10137 1.09193 1.01376 1.10137 1.02074 1.01376 0.955406 1.02074 0.958034 0.955406 0.9241 0.958034 0.924427 0.9241 0.894603 0.924427 0.892674 0.894603 0.840396 0.892674 0.833939 0.840396 0.767924 0.833939 0.758428 0.767924 0.69084 0.758428 0.681398 0.69084 0.616929 0.681398 0.609505 0.616929 0.549029 0.609505 0.544098 0.549029 0.487678 0.544098 0.484908 0.487678 0.432427 0.484908 0.431243 0.432427 0.38232 0.431243 0.382166 0.38232 0.336145 0.382166 0.33657 0.336145 0.292636 0.33657 0.293311 0.292636 0.250657 0.293311 0.25137 0.250657 0.209325 0.25137 0.209953 0.209325 0.168048 0.209953 0.168539 0.168048 0.126509 0.168539 0.126855 0.126509 0.0846084 0.126855 0.0848222 0.0846084 0.0423931 0.0848222 0.0424939 0.0423931 0 0.0424939 0 0 -0.0423931 0 -0.0424939 -0.0423931 -0.0846084 -0.0424939 -0.0848222 -0.0846084 -0.126509 -0.0848222 -0.126855 -0.126509 -0.168048 -0.126855 -0.168539 -0.168048 -0.209325 -0.168539 -0.209953 -0.209325 -0.250657 -0.209953 -0.25137 -0.250657 -0.292636 -0.25137 -0.293311 -0.292636 -0.336145 -0.293311 -0.33657 -0.336145 -0.38232 -0.33657 -0.382166 -0.38232 -0.432427 -0.382166 -0.431243 -0.432427 -0.487678 -0.431243 -0.484908 -0.487678 -0.549029 -0.484908 -0.544098 -0.549029 -0.616929 -0.544098 -0.609505 -0.616929 -0.69084 -0.609505 -0.681398 -0.69084 -0.767924 -0.681398 -0.758428 -0.767924 -0.840396 -0.758428 -0.833939 -0.840396 -0.894603 -0.833939 -0.892674 -0.894603 -0.9241 -0.892674 -0.924427 -0.9241 -0.955406 -0.924427 -0.958034 -0.955406 -1.01376 -0.958034 -1.02074 -1.01376 -1.09193 -1.02074 -1.10137 -1.09193 -1.17701 -1.10137 -1.18534 -1.17701 -1.26265 -1.18534 -1.26734 -1.26265 -1.34754 -1.26734 -1.34754 1.34754 1.26734 1.34754 1.27315 1.26734 1.18534 1.27315 1.19595 1.18534 1.10137 1.19595 1.11391 1.10137 1.02074 1.11391 1.03045 1.02074 0.958034 1.03045 0.961766 0.958034 0.924427 0.961766 0.924829 0.924427 0.892674 0.924829 0.889859 0.892674 0.833939 0.889859 0.825011 0.833939 0.758428 0.825011 0.746031 0.758428 0.681398 0.746031 0.669711 0.681398 0.609505 0.669711 0.600691 0.609505 0.544098 0.600691 0.538425 0.544098 0.484908 0.538425 0.481823 0.484908 0.431243 0.481823 0.430009 0.431243 0.382166 0.430009 0.38211 0.382166 0.33657 0.38211 0.337159 0.33657 0.293311 0.337159 0.294164 0.293311 0.25137 0.294164 0.25224 0.25137 0.209953 0.25224 0.210706 0.209953 0.168539 0.210706 0.169119 0.168539 0.126855 0.169119 0.127258 0.126855 0.0848222 0.127258 0.0850686 0.0848222 0.0424939 0.0850686 0.0426091 0.0424939 0 0.0426091 0 0 -0.0424939 0 -0.0426091 -0.0424939 -0.0848222 -0.0426091 -0.0850686 -0.0848222 -0.126855 -0.0850686 -0.127258 -0.126855 -0.168539 -0.127258 -0.169119 -0.168539 -0.209953 -0.169119 -0.210706 -0.209953 -0.25137 -0.210706 -0.25224 -0.25137 -0.293311 -0.25224 -0.294164 -0.293311 -0.33657 -0.294164 -0.337159 -0.33657 -0.382166 -0.337159 -0.38211 -0.382166 -0.431243 -0.38211 -0.430009 -0.431243 -0.484908 -0.430009 -0.481823 -0.484908 -0.544098 -0.481823 -0.538425 -0.544098 -0.609505 -0.538425 -0.600691 -0.609505 -0.681398 -0.600691 -0.669711 -0.681398 -0.758428 -0.669711 -0.746031 -0.758428 -0.833939 -0.746031 -0.825011 -0.833939 -0.892674 -0.825011 -0.889859 -0.892674 -0.924427 -0.889859 -0.924829 -0.924427 -0.958034 -0.924829 -0.961766 -0.958034 -1.02074 -0.961766 -1.03045 -1.02074 -1.10137 -1.03045 -1.11391 -1.10137 -1.18534 -1.11391 -1.19595 -1.18534 -1.26734 -1.19595 -1.27315 -1.26734 -1.34754 -1.27315 -1.34754 1.34754 1.27315 1.34754 1.27996 1.27315 1.19595 1.27996 1.20879 1.19595 1.11391 1.20879 1.12996 1.11391 1.03045 1.12996 1.04373 1.03045 0.961766 1.04373 0.967133 0.961766 0.924829 0.967133 0.925308 0.924829 0.889859 0.925308 0.885661 0.889859 0.825011 0.885661 0.812824 0.825011 0.746031 0.812824 0.730403 0.746031 0.669711 0.730403 0.655965 0.669711 0.600691 0.655965 0.590846 0.600691 0.538425 0.590846 0.532336 0.538425 0.481823 0.532336 0.478661 0.481823 0.430009 0.478661 0.42888 0.430009 0.38211 0.42888 0.382241 0.38211 0.337159 0.382241 0.337953 0.337159 0.294164 0.337953 0.295202 0.294164 0.25224 0.295202 0.253258 0.25224 0.210706 0.253258 0.211563 0.210706 0.169119 0.211563 0.169765 0.169119 0.127258 0.169765 0.127698 0.127258 0.0850686 0.127698 0.0853339 0.0850686 0.0426091 0.0853339 0.0427317 0.0426091 0 0.0427317 0 0 -0.0426091 0 -0.0427317 -0.0426091 -0.0850686 -0.0427317 -0.0853339 -0.0850686 -0.127258 -0.0853339 -0.127698 -0.127258 -0.169119 -0.127698 -0.169765 -0.169119 -0.210706 -0.169765 -0.211563 -0.210706 -0.25224 -0.211563 -0.253258 -0.25224 -0.294164 -0.253258 -0.295202 -0.294164 -0.337159 -0.295202 -0.337953 -0.337159 -0.38211 -0.337953 -0.382241 -0.38211 -0.430009 -0.382241 -0.42888 -0.430009 -0.481823 -0.42888 -0.478661 -0.481823 -0.538425 -0.478661 -0.532336 -0.538425 -0.600691 -0.532336 -0.590846 -0.600691 -0.669711 -0.590846 -0.655965 -0.669711 -0.746031 -0.655965 -0.730403 -0.746031 -0.825011 -0.730403 -0.812824 -0.825011 -0.889859 -0.812824 -0.885661 -0.889859 -0.924829 -0.885661 -0.925308 -0.924829 -0.961766 -0.925308 -0.967133 -0.961766 -1.03045 -0.967133 -1.04373 -1.03045 -1.11391 -1.04373 -1.12996 -1.11391 -1.19595 -1.12996 -1.20879 -1.19595 -1.27315 -1.20879 -1.27996 -1.27315 -1.34754 -1.27996 -1.34754 1.34754 1.27996 1.34754 1.28756 1.27996 1.20879 1.28756 1.22369 1.20879 1.12996 1.22369 1.14993 1.12996 1.04373 1.14993 1.06177 1.04373 0.967133 1.06177 0.975012 0.967133 0.925308 0.975012 0.925868 0.925308 0.885661 0.925868 0.879246 0.885661 0.812824 0.879246 0.796233 0.812824 0.730403 0.796233 0.711206 0.730403 0.655965 0.711206 0.640461 0.655965 0.590846 0.640461 0.580382 0.590846 0.532336 0.580382 0.526163 0.532336 0.478661 0.526163 0.475666 0.478661 0.42888 0.475666 0.428018 0.42888 0.382241 0.428018 0.382655 0.382241 0.337953 0.382655 0.338998 0.337953 0.295202 0.338998 0.296437 0.295202 0.253258 0.296437 0.254413 0.253258 0.211563 0.254413 0.212505 0.211563 0.169765 0.212505 0.170456 0.169765 0.127698 0.170456 0.128157 0.127698 0.0853339 0.128157 0.0856039 0.0853339 0.0427317 0.0856039 0.0428544 0.0427317 0 0.0428544 0 0 -0.0427317 0 -0.0428544 -0.0427317 -0.0853339 -0.0428544 -0.0856039 -0.0853339 -0.127698 -0.0856039 -0.128157 -0.127698 -0.169765 -0.128157 -0.170456 -0.169765 -0.211563 -0.170456 -0.212505 -0.211563 -0.253258 -0.212505 -0.254413 -0.253258 -0.295202 -0.254413 -0.296437 -0.295202 -0.337953 -0.296437 -0.338998 -0.337953 -0.382241 -0.338998 -0.382655 -0.382241 -0.42888 -0.382655 -0.428018 -0.42888 -0.478661 -0.428018 -0.475666 -0.478661 -0.532336 -0.475666 -0.526163 -0.532336 -0.590846 -0.526163 -0.580382 -0.590846 -0.655965 -0.580382 -0.640461 -0.655965 -0.730403 -0.640461 -0.711206 -0.730403 -0.812824 -0.711206 -0.796233 -0.812824 -0.885661 -0.796233 -0.879246 -0.885661 -0.925308 -0.879246 -0.925868 -0.925308 -0.967133 -0.925868 -0.975012 -0.967133 -1.04373 -0.975012 -1.06177 -1.04373 -1.12996 -1.06177 -1.14993 -1.12996 -1.20879 -1.14993 -1.22369 -1.20879 -1.27996 -1.22369 -1.28756 -1.27996 -1.34754 -1.28756 -1.34754 1.34754 1.28756 1.34754 1.2957 1.28756 1.22369 1.2957 1.24022 1.22369 1.14993 1.24022 1.17397 1.14993 1.06177 1.17397 1.08614 1.06177 0.975012 1.08614 0.986837 0.975012 0.925868 0.986837 0.926521 0.925868 0.879246 0.926521 0.869222 0.879246 0.796233 0.869222 0.773662 0.796233 0.711206 0.773662 0.68827 0.711206 0.640461 0.68827 0.623689 0.640461 0.580382 0.623689 0.569751 0.580382 0.526163 0.569751 0.520246 0.526163 0.475666 0.520246 0.47308 0.475666 0.428018 0.47308 0.427585 0.428018 0.382655 0.427585 0.383447 0.382655 0.338998 0.383447 0.34034 0.338998 0.296437 0.34034 0.297878 0.296437 0.254413 0.297878 0.255694 0.254413 0.212505 0.255694 0.21351 0.212505 0.170456 0.21351 0.171168 0.170456 0.128157 0.171168 0.128614 0.128157 0.0856039 0.128614 0.085864 0.0856039 0.0428544 0.085864 0.0429695 0.0428544 0 0.0429695 0 0 -0.0428544 0 -0.0429695 -0.0428544 -0.0856039 -0.0429695 -0.085864 -0.0856039 -0.128157 -0.085864 -0.128614 -0.128157 -0.170456 -0.128614 -0.171168 -0.170456 -0.212505 -0.171168 -0.21351 -0.212505 -0.254413 -0.21351 -0.255694 -0.254413 -0.296437 -0.255694 -0.297878 -0.296437 -0.338998 -0.297878 -0.34034 -0.338998 -0.382655 -0.34034 -0.383447 -0.382655 -0.428018 -0.383447 -0.427585 -0.428018 -0.475666 -0.427585 -0.47308 -0.475666 -0.526163 -0.47308 -0.520246 -0.526163 -0.580382 -0.520246 -0.569751 -0.580382 -0.640461 -0.569751 -0.623689 -0.640461 -0.711206 -0.623689 -0.68827 -0.711206 -0.796233 -0.68827 -0.773662 -0.796233 -0.879246 -0.773662 -0.869222 -0.879246 -0.925868 -0.869222 -0.926521 -0.925868 -0.975012 -0.926521 -0.986837 -0.975012 -1.06177 -0.986837 -1.08614 -1.06177 -1.14993 -1.08614 -1.17397 -1.14993 -1.22369 -1.17397 -1.24022 -1.22369 -1.28756 -1.24022 -1.2957 -1.28756 -1.34754 -1.2957 -1.34754 1.34754 1.2957 1.34754 1.30411 1.2957 1.24022 1.30411 1.25776 1.24022 1.17397 1.25776 1.20172 1.17397 1.08614 1.20172 1.11878 1.08614 0.986837 1.11878 1.00502 0.986837 0.926521 1.00502 0.927285 0.926521 0.869222 0.927285 0.85319 0.869222 0.773662 0.85319 0.743106 0.773662 0.68827 0.743106 0.661947 0.68827 0.623689 0.661947 0.606368 0.623689 0.569751 0.606368 0.559424 0.569751 0.520246 0.559424 0.514919 0.520246 0.47308 0.514919 0.471144 0.47308 0.427585 0.471144 0.42774 0.427585 0.383447 0.42774 0.384712 0.383447 0.34034 0.384712 0.342022 0.34034 0.297878 0.342022 0.299537 0.297878 0.255694 0.299537 0.25709 0.255694 0.21351 0.25709 0.214556 0.21351 0.171168 0.214556 0.171877 0.171168 0.128614 0.171877 0.129048 0.128614 0.085864 0.129048 0.0860991 0.085864 0.0429695 0.0860991 0.0430694 0.0429695 0 0.0430694 0 0 -0.0429695 0 -0.0430694 -0.0429695 -0.085864 -0.0430694 -0.0860991 -0.085864 -0.128614 -0.0860991 -0.129048 -0.128614 -0.171168 -0.129048 -0.171877 -0.171168 -0.21351 -0.171877 -0.214556 -0.21351 -0.255694 -0.214556 -0.25709 -0.255694 -0.297878 -0.25709 -0.299537 -0.297878 -0.34034 -0.299537 -0.342022 -0.34034 -0.383447 -0.342022 -0.384712 -0.383447 -0.427585 -0.384712 -0.42774 -0.427585 -0.47308 -0.42774 -0.471144 -0.47308 -0.520246 -0.471144 -0.514919 -0.520246 -0.569751 -0.514919 -0.559424 -0.569751 -0.623689 -0.559424 -0.606368 -0.623689 -0.68827 -0.606368 -0.661947 -0.68827 -0.773662 -0.661947 -0.743106 -0.773662 -0.869222 -0.743106 -0.85319 -0.869222 -0.926521 -0.85319 -0.927285 -0.926521 -0.986837 -0.927285 -1.00502 -0.986837 -1.08614 -1.00502 -1.11878 -1.08614 -1.17397 -1.11878 -1.20172 -1.17397 -1.24022 -1.20172 -1.25776 -1.24022 -1.2957 -1.25776 -1.30411 -1.2957 -1.34754 -1.30411 -1.34754 1.34754 1.30411 1.34754 1.31254 1.30411 1.25776 1.31254 1.27556 1.25776 1.20172 1.27556 1.23173 1.20172 1.11878 1.23173 1.16147 1.11878 1.00502 1.16147 1.03398 1.00502 0.927285 1.03398 0.928166 0.927285 0.85319 0.928166 0.826682 0.85319 0.743106 0.826682 0.702561 0.743106 0.661947 0.702561 0.633631 0.661947 0.606368 0.633631 0.589318 0.606368 0.559424 0.589318 0.549856 0.559424 0.514919 0.549856 0.510517 0.514919 0.471144 0.510517 0.470087 0.471144 0.42774 0.470087 0.428636 0.42774 0.384712 0.428636 0.386539 0.384712 0.342022 0.386539 0.344085 0.342022 0.299537 0.344085 0.301415 0.299537 0.25709 0.301415 0.258583 0.25709 0.214556 0.258583 0.215618 0.214556 0.171877 0.215618 0.172556 0.171877 0.129048 0.172556 0.129437 0.129048 0.0860991 0.129437 0.0862937 0.0860991 0.0430694 0.0862937 0.0431462 0.0430694 0 0.0431462 0 0 -0.0430694 0 -0.0431462 -0.0430694 -0.0860991 -0.0431462 -0.0862937 -0.0860991 -0.129048 -0.0862937 -0.129437 -0.129048 -0.171877 -0.129437 -0.172556 -0.171877 -0.214556 -0.172556 -0.215618 -0.214556 -0.25709 -0.215618 -0.258583 -0.25709 -0.299537 -0.258583 -0.301415 -0.299537 -0.342022 -0.301415 -0.344085 -0.342022 -0.384712 -0.344085 -0.386539 -0.384712 -0.42774 -0.386539 -0.428636 -0.42774 -0.471144 -0.428636 -0.470087 -0.471144 -0.514919 -0.470087 -0.510517 -0.514919 -0.559424 -0.510517 -0.549856 -0.559424 -0.606368 -0.549856 -0.589318 -0.606368 -0.661947 -0.589318 -0.633631 -0.661947 -0.743106 -0.633631 -0.702561 -0.743106 -0.85319 -0.702561 -0.826682 -0.85319 -0.927285 -0.826682 -0.928166 -0.927285 -1.00502 -0.928166 -1.03398 -1.00502 -1.11878 -1.03398 -1.16147 -1.11878 -1.20172 -1.16147 -1.23173 -1.20172 -1.25776 -1.23173 -1.27556 -1.25776 -1.30411 -1.27556 -1.31254 -1.30411 -1.34754 -1.31254 -1.34754 1.34754 1.31254 1.34754 1.32068 1.31254 1.27556 1.32068 1.29309 1.27556 1.23173 1.29309 1.26154 1.23173 1.16147 1.26154 1.21332 1.16147 1.03398 1.21332 1.08306 1.03398 0.928166 1.08306 0.929096 0.928166 0.826682 0.929096 0.779971 0.826682 0.702561 0.779971 0.652667 0.702561 0.633631 0.652667 0.605798 0.633631 0.589318 0.605798 0.573164 0.589318 0.549856 0.573164 0.541525 0.549856 0.510517 0.541525 0.507349 0.510517 0.470087 0.507349 0.470129 0.470087 0.428636 0.470129 0.430417 0.428636 0.386539 0.430417 0.389009 0.386539 0.344085 0.389009 0.346559 0.344085 0.301415 0.346559 0.303512 0.301415 0.258583 0.303512 0.260151 0.258583 0.215618 0.260151 0.216665 0.215618 0.172556 0.216665 0.173176 0.172556 0.129437 0.173176 0.129756 0.129437 0.0862937 0.129756 0.0864317 0.0862937 0.0431462 0.0864317 0.0431918 0.0431462 0 0.0431918 0 0 -0.0431462 0 -0.0431918 -0.0431462 -0.0862937 -0.0431918 -0.0864317 -0.0862937 -0.129437 -0.0864317 -0.129756 -0.129437 -0.172556 -0.129756 -0.173176 -0.172556 -0.215618 -0.173176 -0.216665 -0.215618 -0.258583 -0.216665 -0.260151 -0.258583 -0.301415 -0.260151 -0.303512 -0.301415 -0.344085 -0.303512 -0.346559 -0.344085 -0.386539 -0.346559 -0.389009 -0.386539 -0.428636 -0.389009 -0.430417 -0.428636 -0.470087 -0.430417 -0.470129 -0.470087 -0.510517 -0.470129 -0.507349 -0.510517 -0.549856 -0.507349 -0.541525 -0.549856 -0.589318 -0.541525 -0.573164 -0.589318 -0.633631 -0.573164 -0.605798 -0.633631 -0.702561 -0.605798 -0.652667 -0.702561 -0.826682 -0.652667 -0.779971 -0.826682 -0.928166 -0.779971 -0.929096 -0.928166 -1.03398 -0.929096 -1.08306 -1.03398 -1.16147 -1.08306 -1.21332 -1.16147 -1.23173 -1.21332 -1.26154 -1.23173 -1.27556 -1.26154 -1.29309 -1.27556 -1.31254 -1.29309 -1.32068 -1.31254 -1.34754 -1.32068 -1.34754 1.34754 1.32068 1.34754 1.32831 1.32068 1.29309 1.32831 1.3096 1.29309 1.26154 1.3096 1.29046 1.26154 1.21332 1.29046 1.2632 1.21332 1.08306 1.2632 1.17136 1.08306 0.929096 1.17136 0.929625 0.929096 0.779971 0.929625 0.692676 0.779971 0.652667 0.692676 0.604691 0.652667 0.605798 0.604691 0.579189 0.605798 0.573164 0.579189 0.558738 0.573164 0.541525 0.558738 0.534826 0.541525 0.507349 0.534826 0.505715 0.507349 0.470129 0.505715 0.471474 0.470129 0.430417 0.471474 0.433216 0.430417 0.389009 0.433216 0.392194 0.389009 0.346559 0.392194 0.349468 0.346559 0.303512 0.349468 0.305814 0.303512 0.260151 0.305814 0.261764 0.260151 0.216665 0.261764 0.217661 0.216665 0