# vtk DataFile Version 3.0
#This file was generated by the deal.II library on 2017/9/27 at 13:19:02
ASCII
DATASET UNSTRUCTURED_GRID

POINTS 2688 double
-5.63207 0 0
-5.3974 0 0
-5.63207 0.0714286 0
-5.3974 0.0714286 0
-5.3974 0 0
-5.16273 0 0
-5.3974 0.0714286 0
-5.16273 0.0714286 0
-5.16273 0 0
-4.92806 0 0
-5.16273 0.0714286 0
-4.92806 0.0714286 0
-4.92806 0 0
-4.69339 0 0
-4.92806 0.0714286 0
-4.69339 0.0714286 0
-4.69339 0 0
-4.45872 0 0
-4.69339 0.0714286 0
-4.45872 0.0714286 0
-4.45872 0 0
-4.22405 0 0
-4.45872 0.0714286 0
-4.22405 0.0714286 0
-4.22405 0 0
-3.98938 0 0
-4.22405 0.0714286 0
-3.98938 0.0714286 0
-3.98938 0 0
-3.75472 0 0
-3.98938 0.0714286 0
-3.75472 0.0714286 0
-3.75472 0 0
-3.52005 0 0
-3.75472 0.0714286 0
-3.52005 0.0714286 0
-3.52005 0 0
-3.28538 0 0
-3.52005 0.0714286 0
-3.28538 0.0714286 0
-3.28538 0 0
-3.05071 0 0
-3.28538 0.0714286 0
-3.05071 0.0714286 0
-3.05071 0 0
-2.81604 0 0
-3.05071 0.0714286 0
-2.81604 0.0714286 0
-2.81604 0 0
-2.58137 0 0
-2.81604 0.0714286 0
-2.58137 0.0714286 0
-2.58137 0 0
-2.3467 0 0
-2.58137 0.0714286 0
-2.3467 0.0714286 0
-2.3467 0 0
-2.11203 0 0
-2.3467 0.0714286 0
-2.11203 0.0714286 0
-2.11203 0 0
-1.87736 0 0
-2.11203 0.0714286 0
-1.87736 0.0714286 0
-1.87736 0 0
-1.64269 0 0
-1.87736 0.0714286 0
-1.64269 0.0714286 0
-1.64269 0 0
-1.40802 0 0
-1.64269 0.0714286 0
-1.40802 0.0714286 0
-1.40802 0 0
-1.17335 0 0
-1.40802 0.0714286 0
-1.17335 0.0714286 0
-1.17335 0 0
-0.938679 0 0
-1.17335 0.0714286 0
-0.938679 0.0714286 0
-0.938679 0 0
-0.704009 0 0
-0.938679 0.0714286 0
-0.704009 0.0714286 0
-0.704009 0 0
-0.469339 0 0
-0.704009 0.0714286 0
-0.469339 0.0714286 0
-0.469339 0 0
-0.23467 0 0
-0.469339 0.0714286 0
-0.23467 0.0714286 0
-0.23467 0 0
0 0 0
-0.23467 0.0714286 0
0 0.0714286 0
0 0 0
0.23467 0 0
0 0.0714286 0
0.23467 0.0714286 0
0.23467 0 0
0.469339 0 0
0.23467 0.0714286 0
0.469339 0.0714286 0
0.469339 0 0
0.704009 0 0
0.469339 0.0714286 0
0.704009 0.0714286 0
0.704009 0 0
0.938679 0 0
0.704009 0.0714286 0
0.938679 0.0714286 0
0.938679 0 0
1.17335 0 0
0.938679 0.0714286 0
1.17335 0.0714286 0
1.17335 0 0
1.40802 0 0
1.17335 0.0714286 0
1.40802 0.0714286 0
1.40802 0 0
1.64269 0 0
1.40802 0.0714286 0
1.64269 0.0714286 0
1.64269 0 0
1.87736 0 0
1.64269 0.0714286 0
1.87736 0.0714286 0
1.87736 0 0
2.11203 0 0
1.87736 0.0714286 0
2.11203 0.0714286 0
2.11203 0 0
2.3467 0 0
2.11203 0.0714286 0
2.3467 0.0714286 0
2.3467 0 0
2.58137 0 0
2.3467 0.0714286 0
2.58137 0.0714286 0
2.58137 0 0
2.81604 0 0
2.58137 0.0714286 0
2.81604 0.0714286 0
2.81604 0 0
3.05071 0 0
2.81604 0.0714286 0
3.05071 0.0714286 0
3.05071 0 0
3.28538 0 0
3.05071 0.0714286 0
3.28538 0.0714286 0
3.28538 0 0
3.52005 0 0
3.28538 0.0714286 0
3.52005 0.0714286 0
3.52005 0 0
3.75472 0 0
3.52005 0.0714286 0
3.75472 0.0714286 0
3.75472 0 0
3.98938 0 0
3.75472 0.0714286 0
3.98938 0.0714286 0
3.98938 0 0
4.22405 0 0
3.98938 0.0714286 0
4.22405 0.0714286 0
4.22405 0 0
4.45872 0 0
4.22405 0.0714286 0
4.45872 0.0714286 0
4.45872 0 0
4.69339 0 0
4.45872 0.0714286 0
4.69339 0.0714286 0
4.69339 0 0
4.92806 0 0
4.69339 0.0714286 0
4.92806 0.0714286 0
4.92806 0 0
5.16273 0 0
4.92806 0.0714286 0
5.16273 0.0714286 0
5.16273 0 0
5.3974 0 0
5.16273 0.0714286 0
5.3974 0.0714286 0
5.3974 0 0
5.63207 0 0
5.3974 0.0714286 0
5.63207 0.0714286 0
-5.63207 0.0714286 0
-5.3974 0.0714286 0
-5.63207 0.142857 0
-5.3974 0.142857 0
-5.3974 0.0714286 0
-5.16273 0.0714286 0
-5.3974 0.142857 0
-5.16273 0.142857 0
-5.16273 0.0714286 0
-4.92806 0.0714286 0
-5.16273 0.142857 0
-4.92806 0.142857 0
-4.92806 0.0714286 0
-4.69339 0.0714286 0
-4.92806 0.142857 0
-4.69339 0.142857 0
-4.69339 0.0714286 0
-4.45872 0.0714286 0
-4.69339 0.142857 0
-4.45872 0.142857 0
-4.45872 0.0714286 0
-4.22405 0.0714286 0
-4.45872 0.142857 0
-4.22405 0.142857 0
-4.22405 0.0714286 0
-3.98938 0.0714286 0
-4.22405 0.142857 0
-3.98938 0.142857 0
-3.98938 0.0714286 0
-3.75472 0.0714286 0
-3.98938 0.142857 0
-3.75472 0.142857 0
-3.75472 0.0714286 0
-3.52005 0.0714286 0
-3.75472 0.142857 0
-3.52005 0.142857 0
-3.52005 0.0714286 0
-3.28538 0.0714286 0
-3.52005 0.142857 0
-3.28538 0.142857 0
-3.28538 0.0714286 0
-3.05071 0.0714286 0
-3.28538 0.142857 0
-3.05071 0.142857 0
-3.05071 0.0714286 0
-2.81604 0.0714286 0
-3.05071 0.142857 0
-2.81604 0.142857 0
-2.81604 0.0714286 0
-2.58137 0.0714286 0
-2.81604 0.142857 0
-2.58137 0.142857 0
-2.58137 0.0714286 0
-2.3467 0.0714286 0
-2.58137 0.142857 0
-2.3467 0.142857 0
-2.3467 0.0714286 0
-2.11203 0.0714286 0
-2.3467 0.142857 0
-2.11203 0.142857 0
-2.11203 0.0714286 0
-1.87736 0.0714286 0
-2.11203 0.142857 0
-1.87736 0.142857 0
-1.87736 0.0714286 0
-1.64269 0.0714286 0
-1.87736 0.142857 0
-1.64269 0.142857 0
-1.64269 0.0714286 0
-1.40802 0.0714286 0
-1.64269 0.142857 0
-1.40802 0.142857 0
-1.40802 0.0714286 0
-1.17335 0.0714286 0
-1.40802 0.142857 0
-1.17335 0.142857 0
-1.17335 0.0714286 0
-0.938679 0.0714286 0
-1.17335 0.142857 0
-0.938679 0.142857 0
-0.938679 0.0714286 0
-0.704009 0.0714286 0
-0.938679 0.142857 0
-0.704009 0.142857 0
-0.704009 0.0714286 0
-0.469339 0.0714286 0
-0.704009 0.142857 0
-0.469339 0.142857 0
-0.469339 0.0714286 0
-0.23467 0.0714286 0
-0.469339 0.142857 0
-0.23467 0.142857 0
-0.23467 0.0714286 0
0 0.0714286 0
-0.23467 0.142857 0
0 0.142857 0
0 0.0714286 0
0.23467 0.0714286 0
0 0.142857 0
0.23467 0.142857 0
0.23467 0.0714286 0
0.469339 0.0714286 0
0.23467 0.142857 0
0.469339 0.142857 0
0.469339 0.0714286 0
0.704009 0.0714286 0
0.469339 0.142857 0
0.704009 0.142857 0
0.704009 0.0714286 0
0.938679 0.0714286 0
0.704009 0.142857 0
0.938679 0.142857 0
0.938679 0.0714286 0
1.17335 0.0714286 0
0.938679 0.142857 0
1.17335 0.142857 0
1.17335 0.0714286 0
1.40802 0.0714286 0
1.17335 0.142857 0
1.40802 0.142857 0
1.40802 0.0714286 0
1.64269 0.0714286 0
1.40802 0.142857 0
1.64269 0.142857 0
1.64269 0.0714286 0
1.87736 0.0714286 0
1.64269 0.142857 0
1.87736 0.142857 0
1.87736 0.0714286 0
2.11203 0.0714286 0
1.87736 0.142857 0
2.11203 0.142857 0
2.11203 0.0714286 0
2.3467 0.0714286 0
2.11203 0.142857 0
2.3467 0.142857 0
2.3467 0.0714286 0
2.58137 0.0714286 0
2.3467 0.142857 0
2.58137 0.142857 0
2.58137 0.0714286 0
2.81604 0.0714286 0
2.58137 0.142857 0
2.81604 0.142857 0
2.81604 0.0714286 0
3.05071 0.0714286 0
2.81604 0.142857 0
3.05071 0.142857 0
3.05071 0.0714286 0
3.28538 0.0714286 0
3.05071 0.142857 0
3.28538 0.142857 0
3.28538 0.0714286 0
3.52005 0.0714286 0
3.28538 0.142857 0
3.52005 0.142857 0
3.52005 0.0714286 0
3.75472 0.0714286 0
3.52005 0.142857 0
3.75472 0.142857 0
3.75472 0.0714286 0
3.98938 0.0714286 0
3.75472 0.142857 0
3.98938 0.142857 0
3.98938 0.0714286 0
4.22405 0.0714286 0
3.98938 0.142857 0
4.22405 0.142857 0
4.22405 0.0714286 0
4.45872 0.0714286 0
4.22405 0.142857 0
4.45872 0.142857 0
4.45872 0.0714286 0
4.69339 0.0714286 0
4.45872 0.142857 0
4.69339 0.142857 0
4.69339 0.0714286 0
4.92806 0.0714286 0
4.69339 0.142857 0
4.92806 0.142857 0
4.92806 0.0714286 0
5.16273 0.0714286 0
4.92806 0.142857 0
5.16273 0.142857 0
5.16273 0.0714286 0
5.3974 0.0714286 0
5.16273 0.142857 0
5.3974 0.142857 0
5.3974 0.0714286 0
5.63207 0.0714286 0
5.3974 0.142857 0
5.63207 0.142857 0
-5.63207 0.142857 0
-5.3974 0.142857 0
-5.63207 0.214286 0
-5.3974 0.214286 0
-5.3974 0.142857 0
-5.16273 0.142857 0
-5.3974 0.214286 0
-5.16273 0.214286 0
-5.16273 0.142857 0
-4.92806 0.142857 0
-5.16273 0.214286 0
-4.92806 0.214286 0
-4.92806 0.142857 0
-4.69339 0.142857 0
-4.92806 0.214286 0
-4.69339 0.214286 0
-4.69339 0.142857 0
-4.45872 0.142857 0
-4.69339 0.214286 0
-4.45872 0.214286 0
-4.45872 0.142857 0
-4.22405 0.142857 0
-4.45872 0.214286 0
-4.22405 0.214286 0
-4.22405 0.142857 0
-3.98938 0.142857 0
-4.22405 0.214286 0
-3.98938 0.214286 0
-3.98938 0.142857 0
-3.75472 0.142857 0
-3.98938 0.214286 0
-3.75472 0.214286 0
-3.75472 0.142857 0
-3.52005 0.142857 0
-3.75472 0.214286 0
-3.52005 0.214286 0
-3.52005 0.142857 0
-3.28538 0.142857 0
-3.52005 0.214286 0
-3.28538 0.214286 0
-3.28538 0.142857 0
-3.05071 0.142857 0
-3.28538 0.214286 0
-3.05071 0.214286 0
-3.05071 0.142857 0
-2.81604 0.142857 0
-3.05071 0.214286 0
-2.81604 0.214286 0
-2.81604 0.142857 0
-2.58137 0.142857 0
-2.81604 0.214286 0
-2.58137 0.214286 0
-2.58137 0.142857 0
-2.3467 0.142857 0
-2.58137 0.214286 0
-2.3467 0.214286 0
-2.3467 0.142857 0
-2.11203 0.142857 0
-2.3467 0.214286 0
-2.11203 0.214286 0
-2.11203 0.142857 0
-1.87736 0.142857 0
-2.11203 0.214286 0
-1.87736 0.214286 0
-1.87736 0.142857 0
-1.64269 0.142857 0
-1.87736 0.214286 0
-1.64269 0.214286 0
-1.64269 0.142857 0
-1.40802 0.142857 0
-1.64269 0.214286 0
-1.40802 0.214286 0
-1.40802 0.142857 0
-1.17335 0.142857 0
-1.40802 0.214286 0
-1.17335 0.214286 0
-1.17335 0.142857 0
-0.938679 0.142857 0
-1.17335 0.214286 0
-0.938679 0.214286 0
-0.938679 0.142857 0
-0.704009 0.142857 0
-0.938679 0.214286 0
-0.704009 0.214286 0
-0.704009 0.142857 0
-0.469339 0.142857 0
-0.704009 0.214286 0
-0.469339 0.214286 0
-0.469339 0.142857 0
-0.23467 0.142857 0
-0.469339 0.214286 0
-0.23467 0.214286 0
-0.23467 0.142857 0
0 0.142857 0
-0.23467 0.214286 0
0 0.214286 0
0 0.142857 0
0.23467 0.142857 0
0 0.214286 0
0.23467 0.214286 0
0.23467 0.142857 0
0.469339 0.142857 0
0.23467 0.214286 0
0.469339 0.214286 0
0.469339 0.142857 0
0.704009 0.142857 0
0.469339 0.214286 0
0.704009 0.214286 0
0.704009 0.142857 0
0.938679 0.142857 0
0.704009 0.214286 0
0.938679 0.214286 0
0.938679 0.142857 0
1.17335 0.142857 0
0.938679 0.214286 0
1.17335 0.214286 0
1.17335 0.142857 0
1.40802 0.142857 0
1.17335 0.214286 0
1.40802 0.214286 0
1.40802 0.142857 0
1.64269 0.142857 0
1.40802 0.214286 0
1.64269 0.214286 0
1.64269 0.142857 0
1.87736 0.142857 0
1.64269 0.214286 0
1.87736 0.214286 0
1.87736 0.142857 0
2.11203 0.142857 0
1.87736 0.214286 0
2.11203 0.214286 0
2.11203 0.142857 0
2.3467 0.142857 0
2.11203 0.214286 0
2.3467 0.214286 0
2.3467 0.142857 0
2.58137 0.142857 0
2.3467 0.214286 0
2.58137 0.214286 0
2.58137 0.142857 0
2.81604 0.142857 0
2.58137 0.214286 0
2.81604 0.214286 0
2.81604 0.142857 0
3.05071 0.142857 0
2.81604 0.214286 0
[...]
POINT_DATA 2688
SCALARS x1_displacement double 1
LOOKUP_TABLE default
1.25583 1.17388 1.25583 1.17449 1.17388 1.09283 1.17449 1.09387 1.09283 1.01562 1.09387 1.01673 1.01562 0.948694 1.01673 0.94948 0.948694 0.900797 0.94948 0.901127 0.900797 0.873469 0.901127 0.873529 0.873469 0.847387 0.873529 0.847169 0.847387 0.802737 0.847169 0.802019 0.802737 0.740854 0.802019 0.739716 0.740854 0.671251 0.739716 0.67002 0.671251 0.601662 0.67002 0.60063 0.601662 0.536357 0.60063 0.535643 0.536357 0.476921 0.535643 0.476513 0.476921 0.423312 0.476513 0.423136 0.423312 0.374642 0.423136 0.374618 0.374642 0.329682 0.374618 0.329744 0.329682 0.287183 0.329744 0.287281 0.287183 0.24606 0.287281 0.246163 0.24606 0.205494 0.246163 0.205585 0.205494 0.164952 0.205585 0.165023 0.164952 0.124155 0.165023 0.124205 0.124155 0.0830187 0.124205 0.0830492 0.0830187 0.0415912 0.0830492 0.0416056 0.0415912 0 0.0416056 0 0 -0.0415912 0 -0.0416056 -0.0415912 -0.0830187 -0.0416056 -0.0830492 -0.0830187 -0.124155 -0.0830492 -0.124205 -0.124155 -0.164952 -0.124205 -0.165023 -0.164952 -0.205494 -0.165023 -0.205585 -0.205494 -0.24606 -0.205585 -0.246163 -0.24606 -0.287183 -0.246163 -0.287281 -0.287183 -0.329682 -0.287281 -0.329744 -0.329682 -0.374642 -0.329744 -0.374618 -0.374642 -0.423312 -0.374618 -0.423136 -0.423312 -0.476921 -0.423136 -0.476513 -0.476921 -0.536357 -0.476513 -0.535643 -0.536357 -0.601662 -0.535643 -0.60063 -0.601662 -0.671251 -0.60063 -0.67002 -0.671251 -0.740854 -0.67002 -0.739716 -0.740854 -0.802737 -0.739716 -0.802019 -0.802737 -0.847387 -0.802019 -0.847169 -0.847387 -0.873469 -0.847169 -0.873529 -0.873469 -0.900797 -0.873529 -0.901127 -0.900797 -0.948694 -0.901127 -0.94948 -0.948694 -1.01562 -0.94948 -1.01673 -1.01562 -1.09283 -1.01673 -1.09387 -1.09283 -1.17388 -1.09387 -1.17449 -1.17388 -1.25583 -1.17449 -1.25583 1.25583 1.17449 1.25583 1.17626 1.17449 1.09387 1.17626 1.09691 1.09387 1.01673 1.09691 1.02 1.01673 0.94948 1.02 0.951794 0.94948 0.901127 0.951794 0.902033 0.901127 0.873529 0.902033 0.873694 0.873529 0.847169 0.873694 0.846583 0.847169 0.802019 0.846583 0.799926 0.802019 0.739716 0.799926 0.736411 0.739716 0.67002 0.736411 0.666513 0.67002 0.60063 0.666513 0.597741 0.60063 0.535643 0.597741 0.533678 0.535643 0.476513 0.533678 0.475404 0.476513 0.423136 0.475404 0.422672 0.423136 0.374618 0.422672 0.374571 0.374618 0.329744 0.374571 0.329928 0.329744 0.287281 0.329928 0.287562 0.287281 0.246163 0.287562 0.246454 0.246163 0.205585 0.246454 0.205838 0.205585 0.165023 0.205838 0.165219 0.165023 0.124205 0.165219 0.124342 0.124205 0.0830492 0.124342 0.0831335 0.0830492 0.0416056 0.0831335 0.0416452 0.0416056 0 0.0416452 0 0 -0.0416056 0 -0.0416452 -0.0416056 -0.0830492 -0.0416452 -0.0831335 -0.0830492 -0.124205 -0.0831335 -0.124342 -0.124205 -0.165023 -0.124342 -0.165219 -0.165023 -0.205585 -0.165219 -0.205838 -0.205585 -0.246163 -0.205838 -0.246454 -0.246163 -0.287281 -0.246454 -0.287562 -0.287281 -0.329744 -0.287562 -0.329928 -0.329744 -0.374618 -0.329928 -0.374571 -0.374618 -0.423136 -0.374571 -0.422672 -0.423136 -0.476513 -0.422672 -0.475404 -0.476513 -0.535643 -0.475404 -0.533678 -0.535643 -0.60063 -0.533678 -0.597741 -0.60063 -0.67002 -0.597741 -0.666513 -0.67002 -0.739716 -0.666513 -0.736411 -0.739716 -0.802019 -0.736411 -0.799926 -0.802019 -0.847169 -0.799926 -0.846583 -0.847169 -0.873529 -0.846583 -0.873694 -0.873529 -0.901127 -0.873694 -0.902033 -0.901127 -0.94948 -0.902033 -0.951794 -0.94948 -1.01673 -0.951794 -1.02 -1.01673 -1.09387 -1.02 -1.09691 -1.09387 -1.17449 -1.09691 -1.17626 -1.17449 -1.25583 -1.17626 -1.25583 1.25583 1.17626 1.25583 1.17909 1.17626 1.09691 1.17909 1.10181 1.09691 1.02 1.10181 1.02537 1.02 0.951794 1.02537 0.955611 0.951794 0.902033 0.955611 0.903463 0.902033 0.873694 0.903463 0.873947 0.873694 0.846583 0.873947 0.845662 0.846583 0.799926 0.845662 0.796488 0.799926 0.736411 0.796488 0.731051 0.736411 0.666513 0.731051 0.660952 0.666513 0.597741 0.660952 0.593254 0.597741 0.533678 0.593254 0.530673 0.533678 0.475404 0.530673 0.473734 0.475404 0.422672 0.473734 0.421988 0.422672 0.374571 0.421988 0.374521 0.374571 0.329928 0.374521 0.330227 0.329928 0.287562 0.330227 0.288004 0.287562 0.246454 0.288004 0.246908 0.246454 0.205838 0.246908 0.206231 0.205838 0.165219 0.206231 0.165522 0.165219 0.124342 0.165522 0.124552 0.124342 0.0831335 0.124552 0.0832625 0.0831335 0.0416452 0.0832625 0.0417056 0.0416452 0 0.0417056 0 0 -0.0416452 0 -0.0417056 -0.0416452 -0.0831335 -0.0417056 -0.0832625 -0.0831335 -0.124342 -0.0832625 -0.124552 -0.124342 -0.165219 -0.124552 -0.165522 -0.165219 -0.205838 -0.165522 -0.206231 -0.205838 -0.246454 -0.206231 -0.246908 -0.246454 -0.287562 -0.246908 -0.288004 -0.287562 -0.329928 -0.288004 -0.330227 -0.329928 -0.374571 -0.330227 -0.374521 -0.374571 -0.422672 -0.374521 -0.421988 -0.422672 -0.475404 -0.421988 -0.473734 -0.475404 -0.533678 -0.473734 -0.530673 -0.533678 -0.597741 -0.530673 -0.593254 -0.597741 -0.666513 -0.593254 -0.660952 -0.666513 -0.736411 -0.660952 -0.731051 -0.736411 -0.799926 -0.731051 -0.796488 -0.799926 -0.846583 -0.796488 -0.845662 -0.846583 -0.873694 -0.845662 -0.873947 -0.873694 -0.902033 -0.873947 -0.903463 -0.902033 -0.951794 -0.903463 -0.955611 -0.951794 -1.02 -0.955611 -1.02537 -1.02 -1.09691 -1.02537 -1.10181 -1.09691 -1.17626 -1.10181 -1.17909 -1.17626 -1.25583 -1.17909 -1.25583 1.25583 1.17909 1.25583 1.18291 1.17909 1.10181 1.18291 1.10856 1.10181 1.02537 1.10856 1.03295 1.02537 0.955611 1.03295 0.961134 0.955611 0.903463 0.961134 0.905501 0.903463 0.873947 0.905501 0.874278 0.873947 0.845662 0.874278 0.844312 0.845662 0.796488 0.844312 0.791524 0.796488 0.731051 0.791524 0.723583 0.731051 0.660952 0.723583 0.653487 0.660952 0.593254 0.653487 0.587416 0.593254 0.530673 0.587416 0.526859 0.530673 0.473734 0.526859 0.471663 0.473734 0.421988 0.471663 0.421179 0.421988 0.374521 0.421179 0.374513 0.374521 0.330227 0.374513 0.330651 0.330227 0.288004 0.330651 0.288598 0.288004 0.246908 0.288598 0.247504 0.246908 0.206231 0.247504 0.206741 0.206231 0.165522 0.206741 0.165912 0.165522 0.124552 0.165912 0.124821 0.124552 0.0832625 0.124821 0.0834263 0.0832625 0.0417056 0.0834263 0.0417819 0.0417056 0 0.0417819 0 0 -0.0417056 0 -0.0417819 -0.0417056 -0.0832625 -0.0417819 -0.0834263 -0.0832625 -0.124552 -0.0834263 -0.124821 -0.124552 -0.165522 -0.124821 -0.165912 -0.165522 -0.206231 -0.165912 -0.206741 -0.206231 -0.246908 -0.206741 -0.247504 -0.246908 -0.288004 -0.247504 -0.288598 -0.288004 -0.330227 -0.288598 -0.330651 -0.330227 -0.374521 -0.330651 -0.374513 -0.374521 -0.421988 -0.374513 -0.421179 -0.421988 -0.473734 -0.421179 -0.471663 -0.473734 -0.530673 -0.471663 -0.526859 -0.530673 -0.593254 -0.526859 -0.587416 -0.593254 -0.660952 -0.587416 -0.653487 -0.660952 -0.731051 -0.653487 -0.723583 -0.731051 -0.796488 -0.723583 -0.791524 -0.796488 -0.845662 -0.791524 -0.844312 -0.845662 -0.873947 -0.844312 -0.874278 -0.873947 -0.903463 -0.874278 -0.905501 -0.903463 -0.955611 -0.905501 -0.961134 -0.955611 -1.02537 -0.961134 -1.03295 -1.02537 -1.10181 -1.03295 -1.10856 -1.10181 -1.17909 -1.10856 -1.18291 -1.17909 -1.25583 -1.18291 -1.25583 1.25583 1.18291 1.25583 1.18763 1.18291 1.10856 1.18763 1.11714 1.10856 1.03295 1.11714 1.04301 1.03295 0.961134 1.04301 0.968789 0.961134 0.905501 0.968789 0.908373 0.905501 0.874278 0.908373 0.87468 0.874278 0.844312 0.87468 0.842315 0.844312 0.791524 0.842315 0.784643 0.791524 0.723583 0.784643 0.713822 0.723583 0.653487 0.713822 0.644237 0.653487 0.587416 0.644237 0.580486 0.587416 0.526859 0.580486 0.52248 0.526859 0.471663 0.52248 0.46937 0.471663 0.421179 0.46937 0.420356 0.421179 0.374513 0.420356 0.374603 0.374513 0.330651 0.374603 0.331219 0.330651 0.288598 0.331219 0.28934 0.288598 0.247504 0.28934 0.24823 0.247504 0.206741 0.24823 0.207351 0.206741 0.165912 0.207351 0.16637 0.165912 0.124821 0.16637 0.125134 0.124821 0.0834263 0.125134 0.0836141 0.0834263 0.0417819 0.0836141 0.0418687 0.0417819 0 0.0418687 0 0 -0.0417819 0 -0.0418687 -0.0417819 -0.0834263 -0.0418687 -0.0836141 -0.0834263 -0.124821 -0.0836141 -0.125134 -0.124821 -0.165912 -0.125134 -0.16637 -0.165912 -0.206741 -0.16637 -0.207351 -0.206741 -0.247504 -0.207351 -0.24823 -0.247504 -0.288598 -0.24823 -0.28934 -0.288598 -0.330651 -0.28934 -0.331219 -0.330651 -0.374513 -0.331219 -0.374603 -0.374513 -0.421179 -0.374603 -0.420356 -0.421179 -0.471663 -0.420356 -0.46937 -0.471663 -0.526859 -0.46937 -0.52248 -0.526859 -0.587416 -0.52248 -0.580486 -0.587416 -0.653487 -0.580486 -0.644237 -0.653487 -0.723583 -0.644237 -0.713822 -0.723583 -0.791524 -0.713822 -0.784643 -0.791524 -0.844312 -0.784643 -0.842315 -0.844312 -0.874278 -0.842315 -0.87468 -0.874278 -0.905501 -0.87468 -0.908373 -0.905501 -0.961134 -0.908373 -0.968789 -0.961134 -1.03295 -0.968789 -1.04301 -1.03295 -1.10856 -1.04301 -1.11714 -1.10856 -1.18291 -1.11714 -1.18763 -1.18291 -1.25583 -1.18763 -1.25583 1.25583 1.18763 1.25583 1.19316 1.18763 1.11714 1.19316 1.12754 1.11714 1.04301 1.12754 1.05588 1.04301 0.968789 1.05588 0.979246 0.968789 0.908373 0.979246 0.912486 0.908373 0.87468 0.912486 0.875148 0.87468 0.842315 0.875148 0.839277 0.842315 0.784643 0.839277 0.775214 0.784643 0.713822 0.775214 0.701486 0.713822 0.644237 0.701486 0.633342 0.644237 0.580486 0.633342 0.572751 0.580486 0.52248 0.572751 0.517797 0.52248 0.46937 0.517797 0.467045 0.46937 0.420356 0.467045 0.41964 0.420356 0.374603 0.41964 0.374859 0.374603 0.331219 0.374859 0.331961 0.331219 0.28934 0.331961 0.290233 0.28934 0.24823 0.290233 0.249072 0.24823 0.207351 0.249072 0.208041 0.207351 0.16637 0.208041 0.166879 0.16637 0.125134 0.166879 0.125473 0.125134 0.0836141 0.125473 0.0838149 0.0836141 0.0418687 0.0838149 0.0419603 0.0418687 0 0.0419603 0 0 -0.0418687 0 -0.0419603 -0.0418687 -0.0836141 -0.0419603 -0.0838149 -0.0836141 -0.125134 -0.0838149 -0.125473 -0.125134 -0.16637 -0.125473 -0.166879 -0.16637 -0.207351 -0.166879 -0.208041 -0.207351 -0.24823 -0.208041 -0.249072 -0.24823 -0.28934 -0.249072 -0.290233 -0.28934 -0.331219 -0.290233 -0.331961 -0.331219 -0.374603 -0.331961 -0.374859 -0.374603 -0.420356 -0.374859 -0.41964 -0.420356 -0.46937 -0.41964 -0.467045 -0.46937 -0.52248 -0.467045 -0.517797 -0.52248 -0.580486 -0.517797 -0.572751 -0.580486 -0.644237 -0.572751 -0.633342 -0.644237 -0.713822 -0.633342 -0.701486 -0.713822 -0.784643 -0.701486 -0.775214 -0.784643 -0.842315 -0.775214 -0.839277 -0.842315 -0.87468 -0.839277 -0.875148 -0.87468 -0.908373 -0.875148 -0.912486 -0.908373 -0.968789 -0.912486 -0.979246 -0.968789 -1.04301 -0.979246 -1.05588 -1.04301 -1.11714 -1.05588 -1.12754 -1.11714 -1.18763 -1.12754 -1.19316 -1.18763 -1.25583 -1.19316 -1.25583 1.25583 1.19316 1.25583 1.19934 1.19316 1.12754 1.19934 1.13962 1.12754 1.05588 1.13962 1.07193 1.05588 0.979246 1.07193 0.993469 0.979246 0.912486 0.993469 0.918519 0.912486 0.875148 0.918519 0.875676 0.875148 0.839277 0.875676 0.834539 0.839277 0.775214 0.834539 0.76231 0.775214 0.701486 0.76231 0.68627 0.701486 0.633342 0.68627 0.621024 0.633342 0.572751 0.621024 0.56454 0.572751 0.517797 0.56454 0.51308 0.517797 0.467045 0.51308 0.46488 0.467045 0.41964 0.46488 0.419158 0.41964 0.374859 0.419158 0.375352 0.374859 0.331961 0.375352 0.332907 0.331961 0.290233 0.332907 0.291283 0.290233 0.249072 0.291283 0.25002 0.249072 0.208041 0.25002 0.208794 0.208041 0.166879 0.208794 0.167419 0.166879 0.125473 0.167419 0.125824 0.125473 0.0838149 0.125824 0.0840175 0.0838149 0.0419603 0.0840175 0.042051 0.0419603 0 0.042051 0 0 -0.0419603 0 -0.042051 -0.0419603 -0.0838149 -0.042051 -0.0840175 -0.0838149 -0.125473 -0.0840175 -0.125824 -0.125473 -0.166879 -0.125824 -0.167419 -0.166879 -0.208041 -0.167419 -0.208794 -0.208041 -0.249072 -0.208794 -0.25002 -0.249072 -0.290233 -0.25002 -0.291283 -0.290233 -0.331961 -0.291283 -0.332907 -0.331961 -0.374859 -0.332907 -0.375352 -0.374859 -0.41964 -0.375352 -0.419158 -0.41964 -0.467045 -0.419158 -0.46488 -0.467045 -0.517797 -0.46488 -0.51308 -0.517797 -0.572751 -0.51308 -0.56454 -0.572751 -0.633342 -0.56454 -0.621024 -0.633342 -0.701486 -0.621024 -0.68627 -0.701486 -0.775214 -0.68627 -0.76231 -0.775214 -0.839277 -0.76231 -0.834539 -0.839277 -0.875148 -0.834539 -0.875676 -0.875148 -0.912486 -0.875676 -0.918519 -0.912486 -0.979246 -0.918519 -0.993469 -0.979246 -1.05588 -0.993469 -1.07193 -1.05588 -1.12754 -1.07193 -1.13962 -1.12754 -1.19316 -1.13962 -1.19934 -1.19316 -1.25583 -1.19934 -1.25583 1.25583 1.19934 1.25583 1.20595 1.19934 1.13962 1.20595 1.1531 1.13962 1.07193 1.1531 1.09139 1.07193 0.993469 1.09139 1.01276 0.993469 0.918519 1.01276 0.927595 0.918519 0.875676 0.927595 0.876262 0.875676 0.834539 0.876262 0.826999 0.834539 0.76231 0.826999 0.744642 0.76231 0.68627 0.744642 0.667971 0.68627 0.621024 0.667971 0.607662 0.621024 0.56454 0.607662 0.556229 0.56454 0.51308 0.556229 0.508605 0.51308 0.46488 0.508605 0.463073 0.46488 0.419158 0.463073 0.419038 0.419158 0.375352 0.419038 0.376156 0.375352 0.332907 0.376156 0.33409 0.332907 0.291283 0.33409 0.292493 0.291283 0.25002 0.292493 0.251063 0.25002 0.208794 0.251063 0.209592 0.208794 0.167419 0.209592 0.167971 0.167419 0.125824 0.167971 0.12617 0.125824 0.0840175 0.12617 0.0842099 0.0840175 0.042051 0.0842099 0.0421346 0.042051 0 0.0421346 0 0 -0.042051 0 -0.0421346 -0.042051 -0.0840175 -0.0421346 -0.0842099 -0.0840175 -0.125824 -0.0842099 -0.12617 -0.125824 -0.167419 -0.12617 -0.167971 -0.167419 -0.208794 -0.167971 -0.209592 -0.208794 -0.25002 -0.209592 -0.251063 -0.25002 -0.291283 -0.251063 -0.292493 -0.291283 -0.332907 -0.292493 -0.33409 -0.332907 -0.375352 -0.33409 -0.376156 -0.375352 -0.419158 -0.376156 -0.419038 -0.419158 -0.46488 -0.419038 -0.463073 -0.46488 -0.51308 -0.463073 -0.508605 -0.51308 -0.56454 -0.508605 -0.556229 -0.56454 -0.621024 -0.556229 -0.607662 -0.621024 -0.68627 -0.607662 -0.667971 -0.68627 -0.76231 -0.667971 -0.744642 -0.76231 -0.834539 -0.744642 -0.826999 -0.834539 -0.875676 -0.826999 -0.876262 -0.875676 -0.918519 -0.876262 -0.927595 -0.918519 -0.993469 -0.927595 -1.01276 -0.993469 -1.07193 -1.01276 -1.09139 -1.07193 -1.13962 -1.09139 -1.1531 -1.13962 -1.19934 -1.1531 -1.20595 -1.19934 -1.25583 -1.20595 -1.25583 1.25583 1.20595 1.25583 1.21278 1.20595 1.1531 1.21278 1.16744 1.1531 1.09139 1.16744 1.11408 1.09139 1.01276 1.11408 1.03879 1.01276 0.927595 1.03879 0.941619 0.927595 0.876262 0.941619 0.876903 0.876262 0.826999 0.876903 0.814776 0.826999 0.744642 0.814776 0.720521 0.744642 0.667971 0.720521 0.64675 0.667971 0.607662 0.64675 0.593839 0.607662 0.556229 0.593839 0.548213 0.556229 0.508605 0.548213 0.504648 0.508605 0.463073 0.504648 0.461817 0.463073 0.419038 0.461817 0.419403 0.419038 0.376156 0.419403 0.37734 0.376156 0.33409 0.37734 0.33554 0.33409 0.292493 0.33554 0.293866 0.292493 0.251063 0.293866 0.252186 0.251063 0.209592 0.252186 0.210413 0.209592 0.167971 0.210413 0.168514 0.167971 0.12617 0.168514 0.126494 0.12617 0.0842099 0.126494 0.0843803 0.0842099 0.0421346 0.0843803 0.0422052 0.0421346 0 0.0422052 0 0 -0.0421346 0 -0.0422052 -0.0421346 -0.0842099 -0.0422052 -0.0843803 -0.0842099 -0.12617 -0.0843803 -0.126494 -0.12617 -0.167971 -0.126494 -0.168514 -0.167971 -0.209592 -0.168514 -0.210413 -0.209592 -0.251063 -0.210413 -0.252186 -0.251063 -0.292493 -0.252186 -0.293866 -0.292493 -0.33409 -0.293866 -0.33554 -0.33409 -0.376156 -0.33554 -0.37734 -0.376156 -0.419038 -0.37734 -0.419403 -0.419038 -0.463073 -0.419403 -0.461817 -0.463073 -0.508605 -0.461817 -0.504648 -0.508605 -0.556229 -0.504648 -0.548213 -0.556229 -0.607662 -0.548213 -0.593839 -0.607662 -0.667971 -0.593839 -0.64675 -0.667971 -0.744642 -0.64675 -0.720521 -0.744642 -0.826999 -0.720521 -0.814776 -0.826999 -0.876262 -0.814776 -0.876903 -0.876262 -0.927595 -0.876903 -0.941619 -0.927595 -1.01276 -0.941619 -1.03879 -1.01276 -1.09139 -1.03879 -1.11408 -1.09139 -1.1531 -1.11408 -1.16744 -1.1531 -1.20595 -1.16744 -1.21278 -1.20595 -1.25583 -1.21278 -1.25583 1.25583 1.21278 1.25583 1.21959 1.21278 1.16744 1.21959 1.18198 1.16744 1.11408 1.18198 1.13902 1.11408 1.03879 1.13902 1.07336 1.03879 0.941619 1.07336 0.96401 0.941619 0.876903 0.96401 0.877594 0.876903 0.814776 0.877594 0.794444 0.814776 0.720521 0.794444 0.688048 0.720521 0.64675 0.688048 0.623554 0.64675 0.593839 0.623554 0.580282 0.593839 0.548213 0.580282 0.540874 0.548213 0.504648 0.540874 0.501482 0.504648 0.461817 0.501482 0.4613 0.461817 0.419403 0.4613 0.420375 0.419403 0.37734 0.420375 0.378972 0.37734 0.33554 0.378972 0.337282 0.33554 0.293866 0.337282 0.295401 0.293866 0.252186 0.295401 0.253374 0.252186 0.210413 0.253374 0.211236 0.210413 0.168514 0.211236 0.169026 0.168514 0.126494 0.169026 0.126777 0.126494 0.0843803 0.126777 0.0845161 0.0843803 0.0422052 0.0845161 0.0422564 0.0422052 0 0.0422564 0 0 -0.0422052 0 -0.0422564 -0.0422052 -0.0843803 -0.0422564 -0.0845161 -0.0843803 -0.126494 -0.0845161 -0.126777 -0.126494 -0.168514 -0.126777 -0.169026 -0.168514 -0.210413 -0.169026 -0.211236 -0.210413 -0.252186 -0.211236 -0.253374 -0.252186 -0.293866 -0.253374 -0.295401 -0.293866 -0.33554 -0.295401 -0.337282 -0.33554 -0.37734 -0.337282 -0.378972 -0.37734 -0.419403 -0.378972 -0.420375 -0.419403 -0.461817 -0.420375 -0.4613 -0.461817 -0.504648 -0.4613 -0.501482 -0.504648 -0.548213 -0.501482 -0.540874 -0.548213 -0.593839 -0.540874 -0.580282 -0.593839 -0.64675 -0.580282 -0.623554 -0.64675 -0.720521 -0.623554 -0.688048 -0.720521 -0.814776 -0.688048 -0.794444 -0.814776 -0.876903 -0.794444 -0.877594 -0.876903 -0.941619 -0.877594 -0.96401 -0.941619 -1.03879 -0.96401 -1.07336 -1.03879 -1.11408 -1.07336 -1.13902 -1.11408 -1.16744 -1.13902 -1.18198 -1.16744 -1.21278 -1.18198 -1.21959 -1.21278 -1.25583 -1.21959 -1.25583 1.25583 1.21959 1.25583 1.22616 1.21959 1.18198 1.22616 1.19616 1.18198 1.13902 1.19616 1.16412 1.13902 1.07336 1.16412 1.117 1.07336 0.96401 1.117 1.00169 0.96401 0.877594 1.00169 0.878314 0.877594 0.794444 0.878314 0.758974 0.794444 0.688048 0.758974 0.646519 0.688048 0.623554 0.646519 0.600463 0.623554 0.580282 0.600463 0.567617 0.580282 0.540874 0.567617 0.53459 0.540874 0.501482 0.53459 0.499374 0.501482 0.4613 0.499374 0.461698 0.4613 0.420375 0.461698 0.422066 0.420375 0.378972 0.422066 0.38111 0.378972 0.337282 0.38111 0.339335 0.337282 0.295401 0.339335 0.29709 0.295401 0.253374 0.29709 0.254605 0.253374 0.211236 0.254605 0.212036 0.211236 0.169026 0.212036 0.169483 0.169026 0.126777 0.169483 0.127001 0.126777 0.0845161 0.127001 0.084605 0.0845161 0.0422564 0.084605 0.0422821 0.0422564 0 0.0422821 0 0 -0.0422564 0 -0.0422821 -0.0422564 -0.0845161 -0.0422821 -0.084605 -0.0845161 -0.126777 -0.084605 -0.127001 -0.126777 -0.169026 -0.127001 -0.169483 -0.169026 -0.211236 -0.169483 -0.212036 -0.211236 -0.253374 -0.212036 -0.254605 -0.253374 -0.295401 -0.254605 -0.29709 -0.295401 -0.337282 -0.29709 -0.339335 -0.337282 -0.378972 -0.339335 -0.38111 -0.378972 -0.420375 -0.38111 -0.422066 -0.420375 -0.4613 -0.422066 -0.461698 -0.4613 -0.501482 -0.461698 -0.499374 -0.501482 -0.540874 -0.499374 -0.53459 -0.540874 -0.580282 -0.53459 -0.567617 -0.580282 -0.623554 -0.567617 -0.600463 -0.623554 -0.688048 -0.600463 -0.646519 -0.688048 -0.794444 -0.646519 -0.758974 -0.794444 -0.877594 -0.758974 -0.878314 -0.877594 -0.96401 -0.878314 -1.00169 -0.96401 -1.07336 -1.00169 -1.117 -1.07336 -1.13902 -1.117 -1.16412 -1.13902 -1.18198 -1.16412 -1.19616 -1.18198 -1.21959 -1.19616 -1.22616 -1.21959 -1.25583 -1.22616 -1.25583 1.25583 1.22616 1.25583 1.23225 1.22616 1.19616 1.23225 1.20955 1.19616 1.16412 1.20955 1.18761 1.16412 1.117 1.18761 1.16331 1.117 1.00169 1.16331 1.07053 1.00169 0.878314 1.07053 0.878951 0.878314 0.758974 0.878951 0.691934 0.758974 0.646519 0.691934 0.602272 0.646519 0.600463 0.602272 0.579254 0.600463 0.567617 0.579254 0.556345 0.567617 0.53459 0.556345 0.529737 0.53459 0.499374 0.529737 0.498571 0.499374 0.461698 0.498571 0.46318 0.461698 0.422066 0.46318 0.424578 0.422066 0.38111 0.424578 0.383805 0.38111 0.339335 0.383805 0.34171 0.339335 0.29709 0.34171 0.298918 0.29709 0.254605 0.298918 0.255851 0.254605