# vtk DataFile Version 3.0
#This file was generated by the deal.II library on 2017/9/27 at 13:11:56
ASCII
DATASET UNSTRUCTURED_GRID

POINTS 2688 double
-5.63207 0 0
-5.3974 0 0
-5.63207 0.0714286 0
-5.3974 0.0714286 0
-5.3974 0 0
-5.16273 0 0
-5.3974 0.0714286 0
-5.16273 0.0714286 0
-5.16273 0 0
-4.92806 0 0
-5.16273 0.0714286 0
-4.92806 0.0714286 0
-4.92806 0 0
-4.69339 0 0
-4.92806 0.0714286 0
-4.69339 0.0714286 0
-4.69339 0 0
-4.45872 0 0
-4.69339 0.0714286 0
-4.45872 0.0714286 0
-4.45872 0 0
-4.22405 0 0
-4.45872 0.0714286 0
-4.22405 0.0714286 0
-4.22405 0 0
-3.98938 0 0
-4.22405 0.0714286 0
-3.98938 0.0714286 0
-3.98938 0 0
-3.75472 0 0
-3.98938 0.0714286 0
-3.75472 0.0714286 0
-3.75472 0 0
-3.52005 0 0
-3.75472 0.0714286 0
-3.52005 0.0714286 0
-3.52005 0 0
-3.28538 0 0
-3.52005 0.0714286 0
-3.28538 0.0714286 0
-3.28538 0 0
-3.05071 0 0
-3.28538 0.0714286 0
-3.05071 0.0714286 0
-3.05071 0 0
-2.81604 0 0
-3.05071 0.0714286 0
-2.81604 0.0714286 0
-2.81604 0 0
-2.58137 0 0
-2.81604 0.0714286 0
-2.58137 0.0714286 0
-2.58137 0 0
-2.3467 0 0
-2.58137 0.0714286 0
-2.3467 0.0714286 0
-2.3467 0 0
-2.11203 0 0
-2.3467 0.0714286 0
-2.11203 0.0714286 0
-2.11203 0 0
-1.87736 0 0
-2.11203 0.0714286 0
-1.87736 0.0714286 0
-1.87736 0 0
-1.64269 0 0
-1.87736 0.0714286 0
-1.64269 0.0714286 0
-1.64269 0 0
-1.40802 0 0
-1.64269 0.0714286 0
-1.40802 0.0714286 0
-1.40802 0 0
-1.17335 0 0
-1.40802 0.0714286 0
-1.17335 0.0714286 0
-1.17335 0 0
-0.938679 0 0
-1.17335 0.0714286 0
-0.938679 0.0714286 0
-0.938679 0 0
-0.704009 0 0
-0.938679 0.0714286 0
-0.704009 0.0714286 0
-0.704009 0 0
-0.469339 0 0
-0.704009 0.0714286 0
-0.469339 0.0714286 0
-0.469339 0 0
-0.23467 0 0
-0.469339 0.0714286 0
-0.23467 0.0714286 0
-0.23467 0 0
0 0 0
-0.23467 0.0714286 0
0 0.0714286 0
0 0 0
0.23467 0 0
0 0.0714286 0
0.23467 0.0714286 0
0.23467 0 0
0.469339 0 0
0.23467 0.0714286 0
0.469339 0.0714286 0
0.469339 0 0
0.704009 0 0
0.469339 0.0714286 0
0.704009 0.0714286 0
0.704009 0 0
0.938679 0 0
0.704009 0.0714286 0
0.938679 0.0714286 0
0.938679 0 0
1.17335 0 0
0.938679 0.0714286 0
1.17335 0.0714286 0
1.17335 0 0
1.40802 0 0
1.17335 0.0714286 0
1.40802 0.0714286 0
1.40802 0 0
1.64269 0 0
1.40802 0.0714286 0
1.64269 0.0714286 0
1.64269 0 0
1.87736 0 0
1.64269 0.0714286 0
1.87736 0.0714286 0
1.87736 0 0
2.11203 0 0
1.87736 0.0714286 0
2.11203 0.0714286 0
2.11203 0 0
2.3467 0 0
2.11203 0.0714286 0
2.3467 0.0714286 0
2.3467 0 0
2.58137 0 0
2.3467 0.0714286 0
2.58137 0.0714286 0
2.58137 0 0
2.81604 0 0
2.58137 0.0714286 0
2.81604 0.0714286 0
2.81604 0 0
3.05071 0 0
2.81604 0.0714286 0
3.05071 0.0714286 0
3.05071 0 0
3.28538 0 0
3.05071 0.0714286 0
3.28538 0.0714286 0
3.28538 0 0
3.52005 0 0
3.28538 0.0714286 0
3.52005 0.0714286 0
3.52005 0 0
3.75472 0 0
3.52005 0.0714286 0
3.75472 0.0714286 0
3.75472 0 0
3.98938 0 0
3.75472 0.0714286 0
3.98938 0.0714286 0
3.98938 0 0
4.22405 0 0
3.98938 0.0714286 0
4.22405 0.0714286 0
4.22405 0 0
4.45872 0 0
4.22405 0.0714286 0
4.45872 0.0714286 0
4.45872 0 0
4.69339 0 0
4.45872 0.0714286 0
4.69339 0.0714286 0
4.69339 0 0
4.92806 0 0
4.69339 0.0714286 0
4.92806 0.0714286 0
4.92806 0 0
5.16273 0 0
4.92806 0.0714286 0
5.16273 0.0714286 0
5.16273 0 0
5.3974 0 0
5.16273 0.0714286 0
5.3974 0.0714286 0
5.3974 0 0
5.63207 0 0
5.3974 0.0714286 0
5.63207 0.0714286 0
-5.63207 0.0714286 0
-5.3974 0.0714286 0
-5.63207 0.142857 0
-5.3974 0.142857 0
-5.3974 0.0714286 0
-5.16273 0.0714286 0
-5.3974 0.142857 0
-5.16273 0.142857 0
-5.16273 0.0714286 0
-4.92806 0.0714286 0
-5.16273 0.142857 0
-4.92806 0.142857 0
-4.92806 0.0714286 0
-4.69339 0.0714286 0
-4.92806 0.142857 0
-4.69339 0.142857 0
-4.69339 0.0714286 0
-4.45872 0.0714286 0
-4.69339 0.142857 0
-4.45872 0.142857 0
-4.45872 0.0714286 0
-4.22405 0.0714286 0
-4.45872 0.142857 0
-4.22405 0.142857 0
-4.22405 0.0714286 0
-3.98938 0.0714286 0
-4.22405 0.142857 0
-3.98938 0.142857 0
-3.98938 0.0714286 0
-3.75472 0.0714286 0
-3.98938 0.142857 0
-3.75472 0.142857 0
-3.75472 0.0714286 0
-3.52005 0.0714286 0
-3.75472 0.142857 0
-3.52005 0.142857 0
-3.52005 0.0714286 0
-3.28538 0.0714286 0
-3.52005 0.142857 0
-3.28538 0.142857 0
-3.28538 0.0714286 0
-3.05071 0.0714286 0
-3.28538 0.142857 0
-3.05071 0.142857 0
-3.05071 0.0714286 0
-2.81604 0.0714286 0
-3.05071 0.142857 0
-2.81604 0.142857 0
-2.81604 0.0714286 0
-2.58137 0.0714286 0
-2.81604 0.142857 0
-2.58137 0.142857 0
-2.58137 0.0714286 0
-2.3467 0.0714286 0
-2.58137 0.142857 0
-2.3467 0.142857 0
-2.3467 0.0714286 0
-2.11203 0.0714286 0
-2.3467 0.142857 0
-2.11203 0.142857 0
-2.11203 0.0714286 0
-1.87736 0.0714286 0
-2.11203 0.142857 0
-1.87736 0.142857 0
-1.87736 0.0714286 0
-1.64269 0.0714286 0
-1.87736 0.142857 0
-1.64269 0.142857 0
-1.64269 0.0714286 0
-1.40802 0.0714286 0
-1.64269 0.142857 0
-1.40802 0.142857 0
-1.40802 0.0714286 0
-1.17335 0.0714286 0
-1.40802 0.142857 0
-1.17335 0.142857 0
-1.17335 0.0714286 0
-0.938679 0.0714286 0
-1.17335 0.142857 0
-0.938679 0.142857 0
-0.938679 0.0714286 0
-0.704009 0.0714286 0
-0.938679 0.142857 0
-0.704009 0.142857 0
-0.704009 0.0714286 0
-0.469339 0.0714286 0
-0.704009 0.142857 0
-0.469339 0.142857 0
-0.469339 0.0714286 0
-0.23467 0.0714286 0
-0.469339 0.142857 0
-0.23467 0.142857 0
-0.23467 0.0714286 0
0 0.0714286 0
-0.23467 0.142857 0
0 0.142857 0
0 0.0714286 0
0.23467 0.0714286 0
0 0.142857 0
0.23467 0.142857 0
0.23467 0.0714286 0
0.469339 0.0714286 0
0.23467 0.142857 0
0.469339 0.142857 0
0.469339 0.0714286 0
0.704009 0.0714286 0
0.469339 0.142857 0
0.704009 0.142857 0
0.704009 0.0714286 0
0.938679 0.0714286 0
0.704009 0.142857 0
0.938679 0.142857 0
0.938679 0.0714286 0
1.17335 0.0714286 0
0.938679 0.142857 0
1.17335 0.142857 0
1.17335 0.0714286 0
1.40802 0.0714286 0
1.17335 0.142857 0
1.40802 0.142857 0
1.40802 0.0714286 0
1.64269 0.0714286 0
1.40802 0.142857 0
1.64269 0.142857 0
1.64269 0.0714286 0
1.87736 0.0714286 0
1.64269 0.142857 0
1.87736 0.142857 0
1.87736 0.0714286 0
2.11203 0.0714286 0
1.87736 0.142857 0
2.11203 0.142857 0
2.11203 0.0714286 0
2.3467 0.0714286 0
2.11203 0.142857 0
2.3467 0.142857 0
2.3467 0.0714286 0
2.58137 0.0714286 0
2.3467 0.142857 0
2.58137 0.142857 0
2.58137 0.0714286 0
2.81604 0.0714286 0
2.58137 0.142857 0
2.81604 0.142857 0
2.81604 0.0714286 0
3.05071 0.0714286 0
2.81604 0.142857 0
3.05071 0.142857 0
3.05071 0.0714286 0
3.28538 0.0714286 0
3.05071 0.142857 0
3.28538 0.142857 0
3.28538 0.0714286 0
3.52005 0.0714286 0
3.28538 0.142857 0
3.52005 0.142857 0
3.52005 0.0714286 0
3.75472 0.0714286 0
3.52005 0.142857 0
3.75472 0.142857 0
3.75472 0.0714286 0
3.98938 0.0714286 0
3.75472 0.142857 0
3.98938 0.142857 0
3.98938 0.0714286 0
4.22405 0.0714286 0
3.98938 0.142857 0
4.22405 0.142857 0
4.22405 0.0714286 0
4.45872 0.0714286 0
4.22405 0.142857 0
4.45872 0.142857 0
4.45872 0.0714286 0
4.69339 0.0714286 0
4.45872 0.142857 0
4.69339 0.142857 0
4.69339 0.0714286 0
4.92806 0.0714286 0
4.69339 0.142857 0
4.92806 0.142857 0
4.92806 0.0714286 0
5.16273 0.0714286 0
4.92806 0.142857 0
5.16273 0.142857 0
5.16273 0.0714286 0
5.3974 0.0714286 0
5.16273 0.142857 0
5.3974 0.142857 0
5.3974 0.0714286 0
5.63207 0.0714286 0
5.3974 0.142857 0
5.63207 0.142857 0
-5.63207 0.142857 0
-5.3974 0.142857 0
-5.63207 0.214286 0
-5.3974 0.214286 0
-5.3974 0.142857 0
-5.16273 0.142857 0
-5.3974 0.214286 0
-5.16273 0.214286 0
-5.16273 0.142857 0
-4.92806 0.142857 0
-5.16273 0.214286 0
-4.92806 0.214286 0
-4.92806 0.142857 0
-4.69339 0.142857 0
-4.92806 0.214286 0
-4.69339 0.214286 0
-4.69339 0.142857 0
-4.45872 0.142857 0
-4.69339 0.214286 0
-4.45872 0.214286 0
-4.45872 0.142857 0
-4.22405 0.142857 0
-4.45872 0.214286 0
-4.22405 0.214286 0
-4.22405 0.142857 0
-3.98938 0.142857 0
-4.22405 0.214286 0
-3.98938 0.214286 0
-3.98938 0.142857 0
-3.75472 0.142857 0
-3.98938 0.214286 0
-3.75472 0.214286 0
-3.75472 0.142857 0
-3.52005 0.142857 0
-3.75472 0.214286 0
-3.52005 0.214286 0
-3.52005 0.142857 0
-3.28538 0.142857 0
-3.52005 0.214286 0
-3.28538 0.214286 0
-3.28538 0.142857 0
-3.05071 0.142857 0
-3.28538 0.214286 0
-3.05071 0.214286 0
-3.05071 0.142857 0
-2.81604 0.142857 0
-3.05071 0.214286 0
-2.81604 0.214286 0
-2.81604 0.142857 0
-2.58137 0.142857 0
-2.81604 0.214286 0
-2.58137 0.214286 0
-2.58137 0.142857 0
-2.3467 0.142857 0
-2.58137 0.214286 0
-2.3467 0.214286 0
-2.3467 0.142857 0
-2.11203 0.142857 0
-2.3467 0.214286 0
-2.11203 0.214286 0
-2.11203 0.142857 0
-1.87736 0.142857 0
-2.11203 0.214286 0
-1.87736 0.214286 0
-1.87736 0.142857 0
-1.64269 0.142857 0
-1.87736 0.214286 0
-1.64269 0.214286 0
-1.64269 0.142857 0
-1.40802 0.142857 0
-1.64269 0.214286 0
-1.40802 0.214286 0
-1.40802 0.142857 0
-1.17335 0.142857 0
-1.40802 0.214286 0
-1.17335 0.214286 0
-1.17335 0.142857 0
-0.938679 0.142857 0
-1.17335 0.214286 0
-0.938679 0.214286 0
-0.938679 0.142857 0
-0.704009 0.142857 0
-0.938679 0.214286 0
-0.704009 0.214286 0
-0.704009 0.142857 0
-0.469339 0.142857 0
-0.704009 0.214286 0
-0.469339 0.214286 0
-0.469339 0.142857 0
-0.23467 0.142857 0
-0.469339 0.214286 0
-0.23467 0.214286 0
-0.23467 0.142857 0
0 0.142857 0
-0.23467 0.214286 0
0 0.214286 0
0 0.142857 0
0.23467 0.142857 0
0 0.214286 0
0.23467 0.214286 0
0.23467 0.142857 0
0.469339 0.142857 0
0.23467 0.214286 0
0.469339 0.214286 0
0.469339 0.142857 0
0.704009 0.142857 0
0.469339 0.214286 0
0.704009 0.214286 0
0.704009 0.142857 0
0.938679 0.142857 0
0.704009 0.214286 0
0.938679 0.214286 0
0.938679 0.142857 0
1.17335 0.142857 0
0.938679 0.214286 0
1.17335 0.214286 0
1.17335 0.142857 0
1.40802 0.142857 0
1.17335 0.214286 0
1.40802 0.214286 0
1.40802 0.142857 0
1.64269 0.142857 0
1.40802 0.214286 0
1.64269 0.214286 0
1.64269 0.142857 0
1.87736 0.142857 0
1.64269 0.214286 0
1.87736 0.214286 0
1.87736 0.142857 0
2.11203 0.142857 0
1.87736 0.214286 0
2.11203 0.214286 0
2.11203 0.142857 0
2.3467 0.142857 0
2.11203 0.214286 0
2.3467 0.214286 0
2.3467 0.142857 0
2.58137 0.142857 0
2.3467 0.214286 0
2.58137 0.214286 0
2.58137 0.142857 0
2.81604 0.142857 0
2.58137 0.214286 0
2.81604 0.214286 0
2.81604 0.142857 0
3.05071 0.142857 0
2.81604 0.214286 0
[...]
POINT_DATA 2688
SCALARS x1_displacement double 1
LOOKUP_TABLE default
2.05609 1.96374 2.05609 1.96377 1.96374 1.87299 1.96377 1.87303 1.87299 1.78517 1.87303 1.78521 1.78517 1.70106 1.78521 1.70109 1.70106 1.62047 1.70109 1.62049 1.62047 1.54207 1.62049 1.54207 1.54207 1.46366 1.54207 1.46365 1.46366 1.38308 1.46365 1.38305 1.38308 1.29897 1.38305 1.29893 1.29897 1.21114 1.29893 1.21111 1.21114 1.12039 1.21111 1.12037 1.12039 1.02804 1.12037 1.02804 1.02804 0.9357 1.02804 0.935724 0.9357 0.844944 0.935724 0.844983 0.844944 0.757124 0.844983 0.757163 0.757124 0.673013 0.757163 0.673042 0.673013 0.592427 0.673042 0.592441 0.592427 0.514022 0.592441 0.514022 0.514022 0.435618 0.514022 0.435604 0.435618 0.355032 0.435604 0.355003 0.355032 0.270921 0.355003 0.270882 0.270921 0.1831 0.270882 0.183062 0.1831 0.0923447 0.183062 0.0923205 0.0923447 0 0.0923205 0 0 -0.0923447 0 -0.0923205 -0.0923447 -0.1831 -0.0923205 -0.183062 -0.1831 -0.270921 -0.183062 -0.270882 -0.270921 -0.355032 -0.270882 -0.355003 -0.355032 -0.435618 -0.355003 -0.435604 -0.435618 -0.514022 -0.435604 -0.514022 -0.514022 -0.592427 -0.514022 -0.592441 -0.592427 -0.673013 -0.592441 -0.673042 -0.673013 -0.757124 -0.673042 -0.757163 -0.757124 -0.844944 -0.757163 -0.844983 -0.844944 -0.9357 -0.844983 -0.935724 -0.9357 -1.02804 -0.935724 -1.02804 -1.02804 -1.12039 -1.02804 -1.12037 -1.12039 -1.21114 -1.12037 -1.21111 -1.21114 -1.29897 -1.21111 -1.29893 -1.29897 -1.38308 -1.29893 -1.38305 -1.38308 -1.46366 -1.38305 -1.46365 -1.46366 -1.54207 -1.46365 -1.54207 -1.54207 -1.62047 -1.54207 -1.62049 -1.62047 -1.70106 -1.62049 -1.70109 -1.70106 -1.78517 -1.70109 -1.78521 -1.78517 -1.87299 -1.78521 -1.87303 -1.87299 -1.96374 -1.87303 -1.96377 -1.96374 -2.05609 -1.96377 -2.05609 2.05609 1.96377 2.05609 1.96385 1.96377 1.87303 1.96385 1.87316 1.87303 1.78521 1.87316 1.78535 1.78521 1.70109 1.78535 1.70119 1.70109 1.62049 1.70119 1.62054 1.62049 1.54207 1.62054 1.54207 1.54207 1.46365 1.54207 1.4636 1.46365 1.38305 1.4636 1.38295 1.38305 1.29893 1.38295 1.29879 1.29893 1.21111 1.29879 1.21097 1.21111 1.12037 1.21097 1.12028 1.12037 1.02804 1.12028 1.02804 1.02804 0.935724 1.02804 0.935809 0.935724 0.844983 0.935809 0.845119 0.844983 0.757163 0.845119 0.757301 0.757163 0.673042 0.757301 0.673144 0.673042 0.592441 0.673144 0.592492 0.592441 0.514022 0.592492 0.514022 0.514022 0.435604 0.514022 0.435553 0.435604 0.355003 0.435553 0.354901 0.355003 0.270882 0.354901 0.270743 0.270882 0.183062 0.270743 0.182926 0.183062 0.0923205 0.182926 0.0922353 0.0923205 0 0.0922353 0 0 -0.0923205 0 -0.0922353 -0.0923205 -0.183062 -0.0922353 -0.182926 -0.183062 -0.270882 -0.182926 -0.270743 -0.270882 -0.355003 -0.270743 -0.354901 -0.355003 -0.435604 -0.354901 -0.435553 -0.435604 -0.514022 -0.435553 -0.514022 -0.514022 -0.592441 -0.514022 -0.592492 -0.592441 -0.673042 -0.592492 -0.673144 -0.673042 -0.757163 -0.673144 -0.757301 -0.757163 -0.844983 -0.757301 -0.845119 -0.844983 -0.935724 -0.845119 -0.935809 -0.935724 -1.02804 -0.935809 -1.02804 -1.02804 -1.12037 -1.02804 -1.12028 -1.12037 -1.21111 -1.12028 -1.21097 -1.21111 -1.29893 -1.21097 -1.29879 -1.29893 -1.38305 -1.29879 -1.38295 -1.38305 -1.46365 -1.38295 -1.4636 -1.46365 -1.54207 -1.4636 -1.54207 -1.54207 -1.62049 -1.54207 -1.62054 -1.62049 -1.70109 -1.62054 -1.70119 -1.70109 -1.78521 -1.70119 -1.78535 -1.78521 -1.87303 -1.78535 -1.87316 -1.87303 -1.96377 -1.87316 -1.96385 -1.96377 -2.05609 -1.96385 -2.05609 2.05609 1.96385 2.05609 1.96401 1.96385 1.87316 1.96401 1.87341 1.87316 1.78535 1.87341 1.78559 1.78535 1.70119 1.78559 1.70137 1.70119 1.62054 1.70137 1.62063 1.62054 1.54207 1.62063 1.54207 1.54207 1.4636 1.54207 1.46351 1.4636 1.38295 1.46351 1.38276 1.38295 1.29879 1.38276 1.29854 1.29879 1.21097 1.29854 1.21073 1.21097 1.12028 1.21073 1.12013 1.12028 1.02804 1.12013 1.02804 1.02804 0.935809 1.02804 0.935962 0.935809 0.845119 0.935962 0.845363 0.845119 0.757301 0.845363 0.757549 0.757301 0.673144 0.757549 0.673326 0.673144 0.592492 0.673326 0.592582 0.592492 0.514022 0.592582 0.514022 0.514022 0.435553 0.514022 0.435462 0.435553 0.354901 0.435462 0.354719 0.354901 0.270743 0.354719 0.270495 0.270743 0.182926 0.270495 0.182681 0.182926 0.0922353 0.182681 0.0920826 0.0922353 0 0.0920826 0 0 -0.0922353 0 -0.0920826 -0.0922353 -0.182926 -0.0920826 -0.182681 -0.182926 -0.270743 -0.182681 -0.270495 -0.270743 -0.354901 -0.270495 -0.354719 -0.354901 -0.435553 -0.354719 -0.435462 -0.435553 -0.514022 -0.435462 -0.514022 -0.514022 -0.592492 -0.514022 -0.592582 -0.592492 -0.673144 -0.592582 -0.673326 -0.673144 -0.757301 -0.673326 -0.757549 -0.757301 -0.845119 -0.757549 -0.845363 -0.845119 -0.935809 -0.845363 -0.935962 -0.935809 -1.02804 -0.935962 -1.02804 -1.02804 -1.12028 -1.02804 -1.12013 -1.12028 -1.21097 -1.12013 -1.21073 -1.21097 -1.29879 -1.21073 -1.29854 -1.29879 -1.38295 -1.29854 -1.38276 -1.38295 -1.4636 -1.38276 -1.46351 -1.4636 -1.54207 -1.46351 -1.54207 -1.54207 -1.62054 -1.54207 -1.62063 -1.62054 -1.70119 -1.62063 -1.70137 -1.70119 -1.78535 -1.70137 -1.78559 -1.78535 -1.87316 -1.78559 -1.87341 -1.87316 -1.96385 -1.87341 -1.96401 -1.96385 -2.05609 -1.96401 -2.05609 2.05609 1.96401 2.05609 1.96425 1.96401 1.87341 1.96425 1.87379 1.87341 1.78559 1.87379 1.78599 1.78559 1.70137 1.78599 1.70166 1.70137 1.62063 1.70166 1.62077 1.62063 1.54207 1.62077 1.54207 1.54207 1.46351 1.54207 1.46336 1.46351 1.38276 1.46336 1.38247 1.38276 1.29854 1.38247 1.29815 1.29854 1.21073 1.29815 1.21034 1.21073 1.12013 1.21034 1.11989 1.12013 1.02804 1.11989 1.02804 1.02804 0.935962 1.02804 0.936201 0.935962 0.845363 0.936201 0.845748 0.845363 0.757549 0.845748 0.757942 0.757549 0.673326 0.757942 0.673617 0.673326 0.592582 0.673617 0.592727 0.592582 0.514022 0.592727 0.514022 0.514022 0.435462 0.514022 0.435317 0.435462 0.354719 0.435317 0.354428 0.354719 0.270495 0.354428 0.270103 0.270495 0.182681 0.270103 0.182297 0.182681 0.0920826 0.182297 0.0918436 0.0920826 0 0.0918436 0 0 -0.0920826 0 -0.0918436 -0.0920826 -0.182681 -0.0918436 -0.182297 -0.182681 -0.270495 -0.182297 -0.270103 -0.270495 -0.354719 -0.270103 -0.354428 -0.354719 -0.435462 -0.354428 -0.435317 -0.435462 -0.514022 -0.435317 -0.514022 -0.514022 -0.592582 -0.514022 -0.592727 -0.592582 -0.673326 -0.592727 -0.673617 -0.673326 -0.757549 -0.673617 -0.757942 -0.757549 -0.845363 -0.757942 -0.845748 -0.845363 -0.935962 -0.845748 -0.936201 -0.935962 -1.02804 -0.936201 -1.02804 -1.02804 -1.12013 -1.02804 -1.11989 -1.12013 -1.21073 -1.11989 -1.21034 -1.21073 -1.29854 -1.21034 -1.29815 -1.29854 -1.38276 -1.29815 -1.38247 -1.38276 -1.46351 -1.38247 -1.46336 -1.46351 -1.54207 -1.46336 -1.54207 -1.54207 -1.62063 -1.54207 -1.62077 -1.62063 -1.70137 -1.62077 -1.70166 -1.70137 -1.78559 -1.70166 -1.78599 -1.78559 -1.87341 -1.78599 -1.87379 -1.87341 -1.96401 -1.87379 -1.96425 -1.96401 -2.05609 -1.96425 -2.05609 2.05609 1.96425 2.05609 1.9646 1.96425 1.87379 1.9646 1.87437 1.87379 1.78599 1.87437 1.78658 1.78599 1.70166 1.78658 1.70211 1.70166 1.62077 1.70211 1.621 1.62077 1.54207 1.621 1.54207 1.54207 1.46336 1.54207 1.46313 1.46336 1.38247 1.46313 1.38202 1.38247 1.29815 1.38202 1.29755 1.29815 1.21034 1.29755 1.20977 1.21034 1.11989 1.20977 1.11953 1.11989 1.02804 1.11953 1.02804 1.02804 0.936201 1.02804 0.936555 0.936201 0.845748 0.936555 0.846322 0.845748 0.757942 0.846322 0.758537 0.757942 0.673617 0.758537 0.674065 0.673617 0.592727 0.674065 0.592955 0.592727 0.514022 0.592955 0.514022 0.514022 0.435317 0.514022 0.43509 0.435317 0.354428 0.43509 0.353979 0.354428 0.270103 0.353979 0.269508 0.270103 0.182297 0.269508 0.181722 0.182297 0.0918436 0.181722 0.0914892 0.0918436 0 0.0914892 0 0 -0.0918436 0 -0.0914892 -0.0918436 -0.182297 -0.0914892 -0.181722 -0.182297 -0.270103 -0.181722 -0.269508 -0.270103 -0.354428 -0.269508 -0.353979 -0.354428 -0.435317 -0.353979 -0.43509 -0.435317 -0.514022 -0.43509 -0.514022 -0.514022 -0.592727 -0.514022 -0.592955 -0.592727 -0.673617 -0.592955 -0.674065 -0.673617 -0.757942 -0.674065 -0.758537 -0.757942 -0.845748 -0.758537 -0.846322 -0.845748 -0.936201 -0.846322 -0.936555 -0.936201 -1.02804 -0.936555 -1.02804 -1.02804 -1.11989 -1.02804 -1.11953 -1.11989 -1.21034 -1.11953 -1.20977 -1.21034 -1.29815 -1.20977 -1.29755 -1.29815 -1.38247 -1.29755 -1.38202 -1.38247 -1.46336 -1.38202 -1.46313 -1.46336 -1.54207 -1.46313 -1.54207 -1.54207 -1.62077 -1.54207 -1.621 -1.62077 -1.70166 -1.621 -1.70211 -1.70166 -1.78599 -1.70211 -1.78658 -1.78599 -1.87379 -1.78658 -1.87437 -1.87379 -1.96425 -1.87437 -1.9646 -1.96425 -2.05609 -1.9646 -2.05609 2.05609 1.9646 2.05609 1.96511 1.9646 1.87437 1.96511 1.8752 1.87437 1.78658 1.8752 1.78746 1.78658 1.70211 1.78746 1.70279 1.70211 1.621 1.70279 1.62135 1.621 1.54207 1.62135 1.54207 1.54207 1.46313 1.54207 1.46279 1.46313 1.38202 1.46279 1.38135 1.38202 1.29755 1.38135 1.29667 1.29755 1.20977 1.29667 1.20893 1.20977 1.11953 1.20893 1.11902 1.11953 1.02804 1.11902 1.02804 1.02804 0.936555 1.02804 0.937065 0.936555 0.846322 0.937065 0.847157 0.846322 0.758537 0.847157 0.759415 0.758537 0.674065 0.759415 0.674741 0.674065 0.592955 0.674741 0.593304 0.592955 0.514022 0.593304 0.514022 0.514022 0.43509 0.514022 0.434741 0.43509 0.353979 0.434741 0.353304 0.353979 0.269508 0.353304 0.268629 0.269508 0.181722 0.268629 0.180888 0.181722 0.0914892 0.180888 0.0909799 0.0914892 0 0.0909799 0 0 -0.0914892 0 -0.0909799 -0.0914892 -0.181722 -0.0909799 -0.180888 -0.181722 -0.269508 -0.180888 -0.268629 -0.269508 -0.353979 -0.268629 -0.353304 -0.353979 -0.43509 -0.353304 -0.434741 -0.43509 -0.514022 -0.434741 -0.514022 -0.514022 -0.592955 -0.514022 -0.593304 -0.592955 -0.674065 -0.593304 -0.674741 -0.674065 -0.758537 -0.674741 -0.759415 -0.758537 -0.846322 -0.759415 -0.847157 -0.846322 -0.936555 -0.847157 -0.937065 -0.936555 -1.02804 -0.937065 -1.02804 -1.02804 -1.11953 -1.02804 -1.11902 -1.11953 -1.20977 -1.11902 -1.20893 -1.20977 -1.29755 -1.20893 -1.29667 -1.29755 -1.38202 -1.29667 -1.38135 -1.38202 -1.46313 -1.38135 -1.46279 -1.46313 -1.54207 -1.46279 -1.54207 -1.54207 -1.621 -1.54207 -1.62135 -1.621 -1.70211 -1.62135 -1.70279 -1.70211 -1.78658 -1.70279 -1.78746 -1.78658 -1.87437 -1.78746 -1.8752 -1.87437 -1.9646 -1.8752 -1.96511 -1.9646 -2.05609 -1.96511 -2.05609 2.05609 1.96511 2.05609 1.96582 1.96511 1.8752 1.96582 1.87638 1.8752 1.78746 1.87638 1.78873 1.78746 1.70279 1.78873 1.70378 1.70279 1.62135 1.70378 1.62187 1.62135 1.54207 1.62187 1.54207 1.54207 1.46279 1.54207 1.46226 1.46279 1.38135 1.46226 1.38035 1.38135 1.29667 1.38035 1.29541 1.29667 1.20893 1.29541 1.20775 1.20893 1.11902 1.20775 1.11831 1.11902 1.02804 1.11831 1.02804 1.02804 0.937065 1.02804 0.937778 0.937065 0.847157 0.937778 0.848339 0.847157 0.759415 0.848339 0.760682 0.759415 0.674741 0.760682 0.675735 0.674741 0.593304 0.675735 0.593827 0.593304 0.514022 0.593827 0.514022 0.514022 0.434741 0.514022 0.434217 0.434741 0.353304 0.434217 0.352309 0.353304 0.268629 0.352309 0.267363 0.268629 0.180888 0.267363 0.179706 0.180888 0.0909799 0.179706 0.090267 0.0909799 0 0.090267 0 0 -0.0909799 0 -0.090267 -0.0909799 -0.180888 -0.090267 -0.179706 -0.180888 -0.268629 -0.179706 -0.267363 -0.268629 -0.353304 -0.267363 -0.352309 -0.353304 -0.434741 -0.352309 -0.434217 -0.434741 -0.514022 -0.434217 -0.514022 -0.514022 -0.593304 -0.514022 -0.593827 -0.593304 -0.674741 -0.593827 -0.675735 -0.674741 -0.759415 -0.675735 -0.760682 -0.759415 -0.847157 -0.760682 -0.848339 -0.847157 -0.937065 -0.848339 -0.937778 -0.937065 -1.02804 -0.937778 -1.02804 -1.02804 -1.11902 -1.02804 -1.11831 -1.11902 -1.20893 -1.11831 -1.20775 -1.20893 -1.29667 -1.20775 -1.29541 -1.29667 -1.38135 -1.29541 -1.38035 -1.38135 -1.46279 -1.38035 -1.46226 -1.46279 -1.54207 -1.46226 -1.54207 -1.54207 -1.62135 -1.54207 -1.62187 -1.62135 -1.70279 -1.62187 -1.70378 -1.70279 -1.78746 -1.70378 -1.78873 -1.78746 -1.8752 -1.78873 -1.87638 -1.8752 -1.96511 -1.87638 -1.96582 -1.96511 -2.05609 -1.96582 -2.05609 2.05609 1.96582 2.05609 1.9668 1.96582 1.87638 1.9668 1.87802 1.87638 1.78873 1.87802 1.79051 1.78873 1.70378 1.79051 1.70521 1.70378 1.62187 1.70521 1.62264 1.62187 1.54207 1.62264 1.54207 1.54207 1.46226 1.54207 1.46149 1.46226 1.38035 1.46149 1.37892 1.38035 1.29541 1.37892 1.29362 1.29541 1.20775 1.29362 1.20611 1.20775 1.11831 1.20611 1.11734 1.11831 1.02804 1.11734 1.02804 1.02804 0.937778 1.02804 0.938751 0.937778 0.848339 0.938751 0.849974 0.848339 0.760682 0.849974 0.762469 0.760682 0.675735 0.762469 0.67717 0.675735 0.593827 0.67717 0.594596 0.593827 0.514022 0.594596 0.514022 0.514022 0.434217 0.514022 0.433449 0.434217 0.352309 0.433449 0.350875 0.352309 0.267363 0.350875 0.265575 0.267363 0.179706 0.265575 0.17807 0.179706 0.090267 0.17807 0.0892932 0.090267 0 0.0892932 0 0 -0.090267 0 -0.0892932 -0.090267 -0.179706 -0.0892932 -0.17807 -0.179706 -0.267363 -0.17807 -0.265575 -0.267363 -0.352309 -0.265575 -0.350875 -0.352309 -0.434217 -0.350875 -0.433449 -0.434217 -0.514022 -0.433449 -0.514022 -0.514022 -0.593827 -0.514022 -0.594596 -0.593827 -0.675735 -0.594596 -0.67717 -0.675735 -0.760682 -0.67717 -0.762469 -0.760682 -0.848339 -0.762469 -0.849974 -0.848339 -0.937778 -0.849974 -0.938751 -0.937778 -1.02804 -0.938751 -1.02804 -1.02804 -1.11831 -1.02804 -1.11734 -1.11831 -1.20775 -1.11734 -1.20611 -1.20775 -1.29541 -1.20611 -1.29362 -1.29541 -1.38035 -1.29362 -1.37892 -1.38035 -1.46226 -1.37892 -1.46149 -1.46226 -1.54207 -1.46149 -1.54207 -1.54207 -1.62187 -1.54207 -1.62264 -1.62187 -1.70378 -1.62264 -1.70521 -1.70378 -1.78873 -1.70521 -1.79051 -1.78873 -1.87638 -1.79051 -1.87802 -1.87638 -1.96582 -1.87802 -1.9668 -1.96582 -2.05609 -1.9668 -2.05609 2.05609 1.9668 2.05609 1.96809 1.9668 1.87802 1.96809 1.88023 1.87802 1.79051 1.88023 1.79298 1.79051 1.70521 1.79298 1.70724 1.70521 1.62264 1.70724 1.62375 1.62264 1.54207 1.62375 1.54207 1.54207 1.46149 1.54207 1.46038 1.46149 1.37892 1.46038 1.37689 1.37892 1.29362 1.37689 1.29115 1.29362 1.20611 1.29115 1.2039 1.20611 1.11734 1.2039 1.11604 1.11734 1.02804 1.11604 1.02804 1.02804 0.938751 1.02804 0.94005 0.938751 0.849974 0.94005 0.852188 0.849974 0.762469 0.852188 0.76494 0.762469 0.67717 0.76494 0.679199 0.67717 0.594596 0.679199 0.595704 0.594596 0.514022 0.595704 0.514022 0.514022 0.433449 0.514022 0.43234 0.433449 0.350875 0.43234 0.348846 0.350875 0.265575 0.348846 0.263105 0.265575 0.17807 0.263105 0.175856 0.17807 0.0892932 0.175856 0.0879942 0.0892932 0 0.0879942 0 0 -0.0892932 0 -0.0879942 -0.0892932 -0.17807 -0.0879942 -0.175856 -0.17807 -0.265575 -0.175856 -0.263105 -0.265575 -0.350875 -0.263105 -0.348846 -0.350875 -0.433449 -0.348846 -0.43234 -0.433449 -0.514022 -0.43234 -0.514022 -0.514022 -0.594596 -0.514022 -0.595704 -0.594596 -0.67717 -0.595704 -0.679199 -0.67717 -0.762469 -0.679199 -0.76494 -0.762469 -0.849974 -0.76494 -0.852188 -0.849974 -0.938751 -0.852188 -0.94005 -0.938751 -1.02804 -0.94005 -1.02804 -1.02804 -1.11734 -1.02804 -1.11604 -1.11734 -1.20611 -1.11604 -1.2039 -1.20611 -1.29362 -1.2039 -1.29115 -1.29362 -1.37892 -1.29115 -1.37689 -1.37892 -1.46149 -1.37689 -1.46038 -1.46149 -1.54207 -1.46038 -1.54207 -1.54207 -1.62264 -1.54207 -1.62375 -1.62264 -1.70521 -1.62375 -1.70724 -1.70521 -1.79051 -1.70724 -1.79298 -1.79051 -1.87802 -1.79298 -1.88023 -1.87802 -1.9668 -1.88023 -1.96809 -1.9668 -2.05609 -1.96809 -2.05609 2.05609 1.96809 2.05609 1.96979 1.96809 1.88023 1.96979 1.88317 1.88023 1.79298 1.88317 1.79634 1.79298 1.70724 1.79634 1.71007 1.70724 1.62375 1.71007 1.62532 1.62375 1.54207 1.62532 1.54207 1.54207 1.46038 1.54207 1.45881 1.46038 1.37689 1.45881 1.37406 1.37689 1.29115 1.37406 1.2878 1.29115 1.2039 1.2878 1.20097 1.2039 1.11604 1.20097 1.11435 1.11604 1.02804 1.11435 1.02804 1.02804 0.94005 1.02804 0.941743 0.94005 0.852188 0.941743 0.855122 0.852188 0.76494 0.855122 0.768293 0.76494 0.679199 0.768293 0.682025 0.679199 0.595704 0.682025 0.59728 0.595704 0.514022 0.59728 0.514022 0.514022 0.43234 0.514022 0.430765 0.43234 0.348846 0.430765 0.346019 0.348846 0.263105 0.346019 0.259752 0.263105 0.175856 0.259752 0.172923 0.175856 0.0879942 0.172923 0.0863013 0.0879942 0 0.0863013 0 0 -0.0879942 0 -0.0863013 -0.0879942 -0.175856 -0.0863013 -0.172923 -0.175856 -0.263105 -0.172923 -0.259752 -0.263105 -0.348846 -0.259752 -0.346019 -0.348846 -0.43234 -0.346019 -0.430765 -0.43234 -0.514022 -0.430765 -0.514022 -0.514022 -0.595704 -0.514022 -0.59728 -0.595704 -0.679199 -0.59728 -0.682025 -0.679199 -0.76494 -0.682025 -0.768293 -0.76494 -0.852188 -0.768293 -0.855122 -0.852188 -0.94005 -0.855122 -0.941743 -0.94005 -1.02804 -0.941743 -1.02804 -1.02804 -1.11604 -1.02804 -1.11435 -1.11604 -1.2039 -1.11435 -1.20097 -1.2039 -1.29115 -1.20097 -1.2878 -1.29115 -1.37689 -1.2878 -1.37406 -1.37689 -1.46038 -1.37406 -1.45881 -1.46038 -1.54207 -1.45881 -1.54207 -1.54207 -1.62375 -1.54207 -1.62532 -1.62375 -1.70724 -1.62532 -1.71007 -1.70724 -1.79298 -1.71007 -1.79634 -1.79298 -1.88023 -1.79634 -1.88317 -1.88023 -1.96809 -1.88317 -1.96979 -1.96809 -2.05609 -1.96979 -2.05609 2.05609 1.96979 2.05609 1.97194 1.96979 1.88317 1.97194 1.88697 1.88317 1.79634 1.88697 1.80081 1.79634 1.71007 1.80081 1.71396 1.71007 1.62532 1.71396 1.62754 1.62532 1.54207 1.62754 1.54207 1.54207 1.45881 1.54207 1.45659 1.45881 1.37406 1.45659 1.37018 1.37406 1.2878 1.37018 1.28332 1.2878 1.20097 1.28332 1.19716 1.20097 1.11435 1.19716 1.11219 1.11435 1.02804 1.11219 1.02804 1.02804 0.941743 1.02804 0.943899 0.941743 0.855122 0.943899 0.858928 0.855122 0.768293 0.858928 0.772767 0.768293 0.682025 0.772767 0.685914 0.682025 0.59728 0.685914 0.5995 0.59728 0.514022 0.5995 0.514022 0.514022 0.430765 0.514022 0.428545 0.430765 0.346019 0.428545 0.342131 0.346019 0.259752 0.342131 0.255277 0.259752 0.172923 0.255277 0.169117 0.172923 0.0863013 0.169117 0.084146 0.0863013 0 0.084146 0 0 -0.0863013 0 -0.084146 -0.0863013 -0.172923 -0.084146 -0.169117 -0.172923 -0.259752 -0.169117 -0.255277 -0.259752 -0.346019 -0.255277 -0.342131 -0.346019 -0.430765 -0.342131 -0.428545 -0.430765 -0.514022 -0.428545 -0.514022 -0.514022 -0.59728 -0.514022 -0.5995 -0.59728 -0.682025 -0.5995 -0.685914 -0.682025 -0.768293 -0.685914 -0.772767 -0.768293 -0.855122 -0.772767 -0.858928 -0.855122 -0.941743 -0.858928 -0.943899 -0.941743 -1.02804 -0.943899 -1.02804 -1.02804 -1.11435 -1.02804 -1.11219 -1.11435 -1.20097 -1.11219 -1.19716 -1.20097 -1.2878 -1.19716 -1.28332 -1.2878 -1.37406 -1.28332 -1.37018 -1.37406 -1.45881 -1.37018 -1.45659 -1.45881 -1.54207 -1.45659 -1.54207 -1.54207 -1.62532 -1.54207 -1.62754 -1.62532 -1.71007 -1.62754 -1.71396 -1.71007 -1.79634 -1.71396 -1.80081 -1.79634 -1.88317 -1.80081 -1.88697 -1.88317 -1.96979 -1.88697 -1.97194 -1.96979 -2.05609 -1.97194 -2.05609 2.05609 1.97194 2.05609 1.97462 1.97194 1.88697 1.97462 1.89181 1.88697 1.80081 1.89181 1.80669 1.80081 1.71396 1.80669 1.71926 1.71396 1.62754 1.71926 1.63067 1.62754 1.54207 1.63067 1.54207 1.54207 1.45659 1.54207 1.45347 1.45659 1.37018 1.45347 1.36487 1.37018 1.28332 1.36487 1.27744 1.28332 1.19716 1.27744 1.19233 1.19716 1.11219 1.19233 1.10951 1.11219 1.02804 1.10951 1.02804 1.02804 0.943899 1.02804 0.946579 0.943899 0.858928 0.946579 0.863762 0.858928 0.772767 0.863762 0.778644 0.772767 0.685914 0.778644 0.691219 0.685914 0.5995 0.691219 0.602623 0.5995 0.514022 0.602623 0.514022 0.514022 0.428545 0.514022 0.425421 0.428545 0.342131 0.425421 0.336825 0.342131 0.255277 0.336825 0.2494 0.255277 0.169117 0.2494 0.164282 0.169117 0.084146 0.164282 0.081466 0.084146 0 0.081466 0 0 -0.084146 0 -0.081466 -0.084146 -0.169117 -0.081466 -0.164282 -0.169117 -0.255277 -0.164282 -0.2494 -0.255277 -0.342131 -0.2494 -0.336825 -0.342131 -0.428545 -0.336825 -0.425421 -0.428545 -0.514022 -0.425421 -0.514022 -0.514022 -0.5995 -0.514022 -0.602623 -0.5995 -0.685914 -0.602623 -0.691219 -0.685914 -0.772767 -0.691219 -0.778644 -0.772767 -0.858928 -0.778644 -0.863762 -0.858928 -0.943899 -0.863762 -0.946579 -0.943899 -1.02804 -0.946579 -1.02804 -1.02804 -1.11219 -1.02804 -1.10951 -1.11219 -1.19716 -1.10951 -1.19233 -1.19716 -1.28332 -1.19233 -1.27744 -1.28332 -