# vtk DataFile Version 3.0
#This file was generated by the deal.II library on 2017/9/27 at 13:18:50
ASCII
DATASET UNSTRUCTURED_GRID

POINTS 2688 double
-5.63207 0 0
-5.3974 0 0
-5.63207 0.0714286 0
-5.3974 0.0714286 0
-5.3974 0 0
-5.16273 0 0
-5.3974 0.0714286 0
-5.16273 0.0714286 0
-5.16273 0 0
-4.92806 0 0
-5.16273 0.0714286 0
-4.92806 0.0714286 0
-4.92806 0 0
-4.69339 0 0
-4.92806 0.0714286 0
-4.69339 0.0714286 0
-4.69339 0 0
-4.45872 0 0
-4.69339 0.0714286 0
-4.45872 0.0714286 0
-4.45872 0 0
-4.22405 0 0
-4.45872 0.0714286 0
-4.22405 0.0714286 0
-4.22405 0 0
-3.98938 0 0
-4.22405 0.0714286 0
-3.98938 0.0714286 0
-3.98938 0 0
-3.75472 0 0
-3.98938 0.0714286 0
-3.75472 0.0714286 0
-3.75472 0 0
-3.52005 0 0
-3.75472 0.0714286 0
-3.52005 0.0714286 0
-3.52005 0 0
-3.28538 0 0
-3.52005 0.0714286 0
-3.28538 0.0714286 0
-3.28538 0 0
-3.05071 0 0
-3.28538 0.0714286 0
-3.05071 0.0714286 0
-3.05071 0 0
-2.81604 0 0
-3.05071 0.0714286 0
-2.81604 0.0714286 0
-2.81604 0 0
-2.58137 0 0
-2.81604 0.0714286 0
-2.58137 0.0714286 0
-2.58137 0 0
-2.3467 0 0
-2.58137 0.0714286 0
-2.3467 0.0714286 0
-2.3467 0 0
-2.11203 0 0
-2.3467 0.0714286 0
-2.11203 0.0714286 0
-2.11203 0 0
-1.87736 0 0
-2.11203 0.0714286 0
-1.87736 0.0714286 0
-1.87736 0 0
-1.64269 0 0
-1.87736 0.0714286 0
-1.64269 0.0714286 0
-1.64269 0 0
-1.40802 0 0
-1.64269 0.0714286 0
-1.40802 0.0714286 0
-1.40802 0 0
-1.17335 0 0
-1.40802 0.0714286 0
-1.17335 0.0714286 0
-1.17335 0 0
-0.938679 0 0
-1.17335 0.0714286 0
-0.938679 0.0714286 0
-0.938679 0 0
-0.704009 0 0
-0.938679 0.0714286 0
-0.704009 0.0714286 0
-0.704009 0 0
-0.469339 0 0
-0.704009 0.0714286 0
-0.469339 0.0714286 0
-0.469339 0 0
-0.23467 0 0
-0.469339 0.0714286 0
-0.23467 0.0714286 0
-0.23467 0 0
0 0 0
-0.23467 0.0714286 0
0 0.0714286 0
0 0 0
0.23467 0 0
0 0.0714286 0
0.23467 0.0714286 0
0.23467 0 0
0.469339 0 0
0.23467 0.0714286 0
0.469339 0.0714286 0
0.469339 0 0
0.704009 0 0
0.469339 0.0714286 0
0.704009 0.0714286 0
0.704009 0 0
0.938679 0 0
0.704009 0.0714286 0
0.938679 0.0714286 0
0.938679 0 0
1.17335 0 0
0.938679 0.0714286 0
1.17335 0.0714286 0
1.17335 0 0
1.40802 0 0
1.17335 0.0714286 0
1.40802 0.0714286 0
1.40802 0 0
1.64269 0 0
1.40802 0.0714286 0
1.64269 0.0714286 0
1.64269 0 0
1.87736 0 0
1.64269 0.0714286 0
1.87736 0.0714286 0
1.87736 0 0
2.11203 0 0
1.87736 0.0714286 0
2.11203 0.0714286 0
2.11203 0 0
2.3467 0 0
2.11203 0.0714286 0
2.3467 0.0714286 0
2.3467 0 0
2.58137 0 0
2.3467 0.0714286 0
2.58137 0.0714286 0
2.58137 0 0
2.81604 0 0
2.58137 0.0714286 0
2.81604 0.0714286 0
2.81604 0 0
3.05071 0 0
2.81604 0.0714286 0
3.05071 0.0714286 0
3.05071 0 0
3.28538 0 0
3.05071 0.0714286 0
3.28538 0.0714286 0
3.28538 0 0
3.52005 0 0
3.28538 0.0714286 0
3.52005 0.0714286 0
3.52005 0 0
3.75472 0 0
3.52005 0.0714286 0
3.75472 0.0714286 0
3.75472 0 0
3.98938 0 0
3.75472 0.0714286 0
3.98938 0.0714286 0
3.98938 0 0
4.22405 0 0
3.98938 0.0714286 0
4.22405 0.0714286 0
4.22405 0 0
4.45872 0 0
4.22405 0.0714286 0
4.45872 0.0714286 0
4.45872 0 0
4.69339 0 0
4.45872 0.0714286 0
4.69339 0.0714286 0
4.69339 0 0
4.92806 0 0
4.69339 0.0714286 0
4.92806 0.0714286 0
4.92806 0 0
5.16273 0 0
4.92806 0.0714286 0
5.16273 0.0714286 0
5.16273 0 0
5.3974 0 0
5.16273 0.0714286 0
5.3974 0.0714286 0
5.3974 0 0
5.63207 0 0
5.3974 0.0714286 0
5.63207 0.0714286 0
-5.63207 0.0714286 0
-5.3974 0.0714286 0
-5.63207 0.142857 0
-5.3974 0.142857 0
-5.3974 0.0714286 0
-5.16273 0.0714286 0
-5.3974 0.142857 0
-5.16273 0.142857 0
-5.16273 0.0714286 0
-4.92806 0.0714286 0
-5.16273 0.142857 0
-4.92806 0.142857 0
-4.92806 0.0714286 0
-4.69339 0.0714286 0
-4.92806 0.142857 0
-4.69339 0.142857 0
-4.69339 0.0714286 0
-4.45872 0.0714286 0
-4.69339 0.142857 0
-4.45872 0.142857 0
-4.45872 0.0714286 0
-4.22405 0.0714286 0
-4.45872 0.142857 0
-4.22405 0.142857 0
-4.22405 0.0714286 0
-3.98938 0.0714286 0
-4.22405 0.142857 0
-3.98938 0.142857 0
-3.98938 0.0714286 0
-3.75472 0.0714286 0
-3.98938 0.142857 0
-3.75472 0.142857 0
-3.75472 0.0714286 0
-3.52005 0.0714286 0
-3.75472 0.142857 0
-3.52005 0.142857 0
-3.52005 0.0714286 0
-3.28538 0.0714286 0
-3.52005 0.142857 0
-3.28538 0.142857 0
-3.28538 0.0714286 0
-3.05071 0.0714286 0
-3.28538 0.142857 0
-3.05071 0.142857 0
-3.05071 0.0714286 0
-2.81604 0.0714286 0
-3.05071 0.142857 0
-2.81604 0.142857 0
-2.81604 0.0714286 0
-2.58137 0.0714286 0
-2.81604 0.142857 0
-2.58137 0.142857 0
-2.58137 0.0714286 0
-2.3467 0.0714286 0
-2.58137 0.142857 0
-2.3467 0.142857 0
-2.3467 0.0714286 0
-2.11203 0.0714286 0
-2.3467 0.142857 0
-2.11203 0.142857 0
-2.11203 0.0714286 0
-1.87736 0.0714286 0
-2.11203 0.142857 0
-1.87736 0.142857 0
-1.87736 0.0714286 0
-1.64269 0.0714286 0
-1.87736 0.142857 0
-1.64269 0.142857 0
-1.64269 0.0714286 0
-1.40802 0.0714286 0
-1.64269 0.142857 0
-1.40802 0.142857 0
-1.40802 0.0714286 0
-1.17335 0.0714286 0
-1.40802 0.142857 0
-1.17335 0.142857 0
-1.17335 0.0714286 0
-0.938679 0.0714286 0
-1.17335 0.142857 0
-0.938679 0.142857 0
-0.938679 0.0714286 0
-0.704009 0.0714286 0
-0.938679 0.142857 0
-0.704009 0.142857 0
-0.704009 0.0714286 0
-0.469339 0.0714286 0
-0.704009 0.142857 0
-0.469339 0.142857 0
-0.469339 0.0714286 0
-0.23467 0.0714286 0
-0.469339 0.142857 0
-0.23467 0.142857 0
-0.23467 0.0714286 0
0 0.0714286 0
-0.23467 0.142857 0
0 0.142857 0
0 0.0714286 0
0.23467 0.0714286 0
0 0.142857 0
0.23467 0.142857 0
0.23467 0.0714286 0
0.469339 0.0714286 0
0.23467 0.142857 0
0.469339 0.142857 0
0.469339 0.0714286 0
0.704009 0.0714286 0
0.469339 0.142857 0
0.704009 0.142857 0
0.704009 0.0714286 0
0.938679 0.0714286 0
0.704009 0.142857 0
0.938679 0.142857 0
0.938679 0.0714286 0
1.17335 0.0714286 0
0.938679 0.142857 0
1.17335 0.142857 0
1.17335 0.0714286 0
1.40802 0.0714286 0
1.17335 0.142857 0
1.40802 0.142857 0
1.40802 0.0714286 0
1.64269 0.0714286 0
1.40802 0.142857 0
1.64269 0.142857 0
1.64269 0.0714286 0
1.87736 0.0714286 0
1.64269 0.142857 0
1.87736 0.142857 0
1.87736 0.0714286 0
2.11203 0.0714286 0
1.87736 0.142857 0
2.11203 0.142857 0
2.11203 0.0714286 0
2.3467 0.0714286 0
2.11203 0.142857 0
2.3467 0.142857 0
2.3467 0.0714286 0
2.58137 0.0714286 0
2.3467 0.142857 0
2.58137 0.142857 0
2.58137 0.0714286 0
2.81604 0.0714286 0
2.58137 0.142857 0
2.81604 0.142857 0
2.81604 0.0714286 0
3.05071 0.0714286 0
2.81604 0.142857 0
3.05071 0.142857 0
3.05071 0.0714286 0
3.28538 0.0714286 0
3.05071 0.142857 0
3.28538 0.142857 0
3.28538 0.0714286 0
3.52005 0.0714286 0
3.28538 0.142857 0
3.52005 0.142857 0
3.52005 0.0714286 0
3.75472 0.0714286 0
3.52005 0.142857 0
3.75472 0.142857 0
3.75472 0.0714286 0
3.98938 0.0714286 0
3.75472 0.142857 0
3.98938 0.142857 0
3.98938 0.0714286 0
4.22405 0.0714286 0
3.98938 0.142857 0
4.22405 0.142857 0
4.22405 0.0714286 0
4.45872 0.0714286 0
4.22405 0.142857 0
4.45872 0.142857 0
4.45872 0.0714286 0
4.69339 0.0714286 0
4.45872 0.142857 0
4.69339 0.142857 0
4.69339 0.0714286 0
4.92806 0.0714286 0
4.69339 0.142857 0
4.92806 0.142857 0
4.92806 0.0714286 0
5.16273 0.0714286 0
4.92806 0.142857 0
5.16273 0.142857 0
5.16273 0.0714286 0
5.3974 0.0714286 0
5.16273 0.142857 0
5.3974 0.142857 0
5.3974 0.0714286 0
5.63207 0.0714286 0
5.3974 0.142857 0
5.63207 0.142857 0
-5.63207 0.142857 0
-5.3974 0.142857 0
-5.63207 0.214286 0
-5.3974 0.214286 0
-5.3974 0.142857 0
-5.16273 0.142857 0
-5.3974 0.214286 0
-5.16273 0.214286 0
-5.16273 0.142857 0
-4.92806 0.142857 0
-5.16273 0.214286 0
-4.92806 0.214286 0
-4.92806 0.142857 0
-4.69339 0.142857 0
-4.92806 0.214286 0
-4.69339 0.214286 0
-4.69339 0.142857 0
-4.45872 0.142857 0
-4.69339 0.214286 0
-4.45872 0.214286 0
-4.45872 0.142857 0
-4.22405 0.142857 0
-4.45872 0.214286 0
-4.22405 0.214286 0
-4.22405 0.142857 0
-3.98938 0.142857 0
-4.22405 0.214286 0
-3.98938 0.214286 0
-3.98938 0.142857 0
-3.75472 0.142857 0
-3.98938 0.214286 0
-3.75472 0.214286 0
-3.75472 0.142857 0
-3.52005 0.142857 0
-3.75472 0.214286 0
-3.52005 0.214286 0
-3.52005 0.142857 0
-3.28538 0.142857 0
-3.52005 0.214286 0
-3.28538 0.214286 0
-3.28538 0.142857 0
-3.05071 0.142857 0
-3.28538 0.214286 0
-3.05071 0.214286 0
-3.05071 0.142857 0
-2.81604 0.142857 0
-3.05071 0.214286 0
-2.81604 0.214286 0
-2.81604 0.142857 0
-2.58137 0.142857 0
-2.81604 0.214286 0
-2.58137 0.214286 0
-2.58137 0.142857 0
-2.3467 0.142857 0
-2.58137 0.214286 0
-2.3467 0.214286 0
-2.3467 0.142857 0
-2.11203 0.142857 0
-2.3467 0.214286 0
-2.11203 0.214286 0
-2.11203 0.142857 0
-1.87736 0.142857 0
-2.11203 0.214286 0
-1.87736 0.214286 0
-1.87736 0.142857 0
-1.64269 0.142857 0
-1.87736 0.214286 0
-1.64269 0.214286 0
-1.64269 0.142857 0
-1.40802 0.142857 0
-1.64269 0.214286 0
-1.40802 0.214286 0
-1.40802 0.142857 0
-1.17335 0.142857 0
-1.40802 0.214286 0
-1.17335 0.214286 0
-1.17335 0.142857 0
-0.938679 0.142857 0
-1.17335 0.214286 0
-0.938679 0.214286 0
-0.938679 0.142857 0
-0.704009 0.142857 0
-0.938679 0.214286 0
-0.704009 0.214286 0
-0.704009 0.142857 0
-0.469339 0.142857 0
-0.704009 0.214286 0
-0.469339 0.214286 0
-0.469339 0.142857 0
-0.23467 0.142857 0
-0.469339 0.214286 0
-0.23467 0.214286 0
-0.23467 0.142857 0
0 0.142857 0
-0.23467 0.214286 0
0 0.214286 0
0 0.142857 0
0.23467 0.142857 0
0 0.214286 0
0.23467 0.214286 0
0.23467 0.142857 0
0.469339 0.142857 0
0.23467 0.214286 0
0.469339 0.214286 0
0.469339 0.142857 0
0.704009 0.142857 0
0.469339 0.214286 0
0.704009 0.214286 0
0.704009 0.142857 0
0.938679 0.142857 0
0.704009 0.214286 0
0.938679 0.214286 0
0.938679 0.142857 0
1.17335 0.142857 0
0.938679 0.214286 0
1.17335 0.214286 0
1.17335 0.142857 0
1.40802 0.142857 0
1.17335 0.214286 0
1.40802 0.214286 0
1.40802 0.142857 0
1.64269 0.142857 0
1.40802 0.214286 0
1.64269 0.214286 0
1.64269 0.142857 0
1.87736 0.142857 0
1.64269 0.214286 0
1.87736 0.214286 0
1.87736 0.142857 0
2.11203 0.142857 0
1.87736 0.214286 0
2.11203 0.214286 0
2.11203 0.142857 0
2.3467 0.142857 0
2.11203 0.214286 0
2.3467 0.214286 0
2.3467 0.142857 0
2.58137 0.142857 0
2.3467 0.214286 0
2.58137 0.214286 0
2.58137 0.142857 0
2.81604 0.142857 0
2.58137 0.214286 0
2.81604 0.214286 0
2.81604 0.142857 0
3.05071 0.142857 0
2.81604 0.214286 0
[...]
POINT_DATA 2688
SCALARS x1_displacement double 1
LOOKUP_TABLE default
1.29545 1.21421 1.29545 1.21474 1.21421 1.1341 1.21474 1.13499 1.1341 1.05806 1.13499 1.05899 1.05806 0.992145 1.05899 0.992794 0.992145 0.944095 0.992794 0.944361 0.944095 0.914593 0.944361 0.914653 0.914593 0.886158 0.914653 0.886004 0.886158 0.840951 0.886004 0.840375 0.840951 0.779536 0.840375 0.778587 0.779536 0.710333 0.778587 0.709284 0.710333 0.640536 0.709284 0.639643 0.640536 0.574258 0.639643 0.573637 0.574258 0.513133 0.573637 0.512778 0.513133 0.457238 0.512778 0.457089 0.457238 0.405825 0.457089 0.405811 0.405825 0.357795 0.405811 0.357857 0.357795 0.312005 0.357857 0.312099 0.312005 0.267453 0.312099 0.267551 0.267453 0.223378 0.267551 0.223463 0.223378 0.179284 0.223463 0.17935 0.179284 0.134914 0.17935 0.134959 0.134914 0.0901938 0.134959 0.0902218 0.0901938 0.0451794 0.0902218 0.0451925 0.0451794 0 0.0451925 0 0 -0.0451794 0 -0.0451925 -0.0451794 -0.0901938 -0.0451925 -0.0902218 -0.0901938 -0.134914 -0.0902218 -0.134959 -0.134914 -0.179284 -0.134959 -0.17935 -0.179284 -0.223378 -0.17935 -0.223463 -0.223378 -0.267453 -0.223463 -0.267551 -0.267453 -0.312005 -0.267551 -0.312099 -0.312005 -0.357795 -0.312099 -0.357857 -0.357795 -0.405825 -0.357857 -0.405811 -0.405825 -0.457238 -0.405811 -0.457089 -0.457238 -0.513133 -0.457089 -0.512778 -0.513133 -0.574258 -0.512778 -0.573637 -0.574258 -0.640536 -0.573637 -0.639643 -0.640536 -0.710333 -0.639643 -0.709284 -0.710333 -0.779536 -0.709284 -0.778587 -0.779536 -0.840951 -0.778587 -0.840375 -0.840951 -0.886158 -0.840375 -0.886004 -0.886158 -0.914593 -0.886004 -0.914653 -0.914593 -0.944095 -0.914653 -0.944361 -0.944095 -0.992145 -0.944361 -0.992794 -0.992145 -1.05806 -0.992794 -1.05899 -1.05806 -1.1341 -1.05899 -1.13499 -1.1341 -1.21421 -1.13499 -1.21474 -1.21421 -1.29545 -1.21474 -1.29545 1.29545 1.21474 1.29545 1.21628 1.21474 1.13499 1.21628 1.13759 1.13499 1.05899 1.13759 1.06176 1.05899 0.992794 1.06176 0.994706 0.992794 0.944361 0.994706 0.945092 0.944361 0.914653 0.945092 0.914818 0.914653 0.886004 0.914818 0.885594 0.886004 0.840375 0.885594 0.838692 0.840375 0.778587 0.838692 0.775824 0.778587 0.709284 0.775824 0.70629 0.709284 0.639643 0.70629 0.637144 0.639643 0.573637 0.637144 0.571925 0.573637 0.512778 0.571925 0.511816 0.512778 0.457089 0.511816 0.456696 0.457089 0.405811 0.456696 0.40579 0.405811 0.357857 0.40579 0.358042 0.357857 0.312099 0.358042 0.312369 0.312099 0.267551 0.312369 0.267826 0.267551 0.223463 0.267826 0.2237 0.223463 0.17935 0.2237 0.179532 0.17935 0.134959 0.179532 0.135086 0.134959 0.0902218 0.135086 0.090299 0.0902218 0.0451925 0.090299 0.0452285 0.0451925 0 0.0452285 0 0 -0.0451925 0 -0.0452285 -0.0451925 -0.0902218 -0.0452285 -0.090299 -0.0902218 -0.134959 -0.090299 -0.135086 -0.134959 -0.17935 -0.135086 -0.179532 -0.17935 -0.223463 -0.179532 -0.2237 -0.223463 -0.267551 -0.2237 -0.267826 -0.267551 -0.312099 -0.267826 -0.312369 -0.312099 -0.357857 -0.312369 -0.358042 -0.357857 -0.405811 -0.358042 -0.40579 -0.405811 -0.457089 -0.40579 -0.456696 -0.457089 -0.512778 -0.456696 -0.511816 -0.512778 -0.573637 -0.511816 -0.571925 -0.573637 -0.639643 -0.571925 -0.637144 -0.639643 -0.709284 -0.637144 -0.70629 -0.709284 -0.778587 -0.70629 -0.775824 -0.778587 -0.840375 -0.775824 -0.838692 -0.840375 -0.886004 -0.838692 -0.885594 -0.886004 -0.914653 -0.885594 -0.914818 -0.914653 -0.944361 -0.914818 -0.945092 -0.944361 -0.992794 -0.945092 -0.994706 -0.992794 -1.05899 -0.994706 -1.06176 -1.05899 -1.13499 -1.06176 -1.13759 -1.13499 -1.21474 -1.13759 -1.21628 -1.21474 -1.29545 -1.21628 -1.29545 1.29545 1.21628 1.29545 1.21873 1.21628 1.13759 1.21873 1.14181 1.13759 1.06176 1.14181 1.0663 1.06176 0.994706 1.0663 0.99786 0.994706 0.945092 0.99786 0.946236 0.945092 0.914818 0.946236 0.915072 0.914818 0.885594 0.915072 0.884955 0.885594 0.838692 0.884955 0.835926 0.838692 0.775824 0.835926 0.771335 0.775824 0.70629 0.771335 0.701531 0.70629 0.637144 0.701531 0.633254 0.637144 0.571925 0.633254 0.569305 0.571925 0.511816 0.569305 0.510365 0.511816 0.456696 0.510365 0.456121 0.456696 0.40579 0.456121 0.405781 0.40579 0.358042 0.405781 0.358343 0.358042 0.312369 0.358343 0.312793 0.312369 0.267826 0.312793 0.268254 0.267826 0.2237 0.268254 0.224068 0.2237 0.179532 0.224068 0.179813 0.179532 0.135086 0.179813 0.13528 0.135086 0.090299 0.13528 0.090417 0.090299 0.0452285 0.090417 0.0452834 0.0452285 0 0.0452834 0 0 -0.0452285 0 -0.0452834 -0.0452285 -0.090299 -0.0452834 -0.090417 -0.090299 -0.135086 -0.090417 -0.13528 -0.135086 -0.179532 -0.13528 -0.179813 -0.179532 -0.2237 -0.179813 -0.224068 -0.2237 -0.267826 -0.224068 -0.268254 -0.267826 -0.312369 -0.268254 -0.312793 -0.312369 -0.358042 -0.312793 -0.358343 -0.358042 -0.40579 -0.358343 -0.405781 -0.40579 -0.456696 -0.405781 -0.456121 -0.456696 -0.511816 -0.456121 -0.510365 -0.511816 -0.571925 -0.510365 -0.569305 -0.571925 -0.637144 -0.569305 -0.633254 -0.637144 -0.70629 -0.633254 -0.701531 -0.70629 -0.775824 -0.701531 -0.771335 -0.775824 -0.838692 -0.771335 -0.835926 -0.838692 -0.885594 -0.835926 -0.884955 -0.885594 -0.914818 -0.884955 -0.915072 -0.914818 -0.945092 -0.915072 -0.946236 -0.945092 -0.994706 -0.946236 -0.99786 -0.994706 -1.06176 -0.99786 -1.0663 -1.06176 -1.13759 -1.0663 -1.14181 -1.13759 -1.21628 -1.14181 -1.21873 -1.21628 -1.29545 -1.21873 -1.29545 1.29545 1.21873 1.29545 1.22205 1.21873 1.14181 1.22205 1.14762 1.14181 1.0663 1.14762 1.07273 1.0663 0.99786 1.07273 1.00243 0.99786 0.946236 1.00243 0.94786 0.946236 0.915072 0.94786 0.915404 0.915072 0.884955 0.915404 0.884012 0.884955 0.835926 0.884012 0.831921 0.835926 0.771335 0.831921 0.765065 0.771335 0.701531 0.765065 0.695126 0.701531 0.633254 0.695126 0.628181 0.633254 0.569305 0.628181 0.565976 0.569305 0.510365 0.565976 0.50857 0.510365 0.456121 0.50857 0.455448 0.456121 0.405781 0.455448 0.405822 0.405781 0.358343 0.405822 0.358767 0.358343 0.312793 0.358767 0.313363 0.312793 0.268254 0.313363 0.268819 0.268254 0.224068 0.268819 0.224547 0.224068 0.179813 0.224547 0.180176 0.179813 0.13528 0.180176 0.135527 0.13528 0.090417 0.135527 0.0905663 0.090417 0.0452834 0.0905663 0.0453525 0.0452834 0 0.0453525 0 0 -0.0452834 0 -0.0453525 -0.0452834 -0.090417 -0.0453525 -0.0905663 -0.090417 -0.13528 -0.0905663 -0.135527 -0.13528 -0.179813 -0.135527 -0.180176 -0.179813 -0.224068 -0.180176 -0.224547 -0.224068 -0.268254 -0.224547 -0.268819 -0.268254 -0.312793 -0.268819 -0.313363 -0.312793 -0.358343 -0.313363 -0.358767 -0.358343 -0.405781 -0.358767 -0.405822 -0.405781 -0.456121 -0.405822 -0.455448 -0.456121 -0.510365 -0.455448 -0.50857 -0.510365 -0.569305 -0.50857 -0.565976 -0.569305 -0.633254 -0.565976 -0.628181 -0.633254 -0.701531 -0.628181 -0.695126 -0.701531 -0.771335 -0.695126 -0.765065 -0.771335 -0.835926 -0.765065 -0.831921 -0.835926 -0.884955 -0.831921 -0.884012 -0.884955 -0.915072 -0.884012 -0.915404 -0.915072 -0.946236 -0.915404 -0.94786 -0.946236 -0.99786 -0.94786 -1.00243 -0.99786 -1.0663 -1.00243 -1.07273 -1.0663 -1.14181 -1.07273 -1.14762 -1.14181 -1.21873 -1.14762 -1.22205 -1.21873 -1.29545 -1.22205 -1.29545 1.29545 1.22205 1.29545 1.22619 1.22205 1.14762 1.22619 1.15506 1.14762 1.07273 1.15506 1.08129 1.07273 1.00243 1.08129 1.00877 1.00243 0.94786 1.00877 0.950146 0.94786 0.915404 0.950146 0.915807 0.915404 0.884012 0.915807 0.882585 0.884012 0.831921 0.882585 0.826339 0.831921 0.765065 0.826339 0.756834 0.765065 0.695126 0.756834 0.687158 0.695126 0.628181 0.687158 0.622142 0.628181 0.565976 0.622142 0.562151 0.565976 0.50857 0.562151 0.506588 0.50857 0.455448 0.506588 0.454775 0.455448 0.405822 0.454775 0.405964 0.405822 0.358767 0.405964 0.359332 0.358767 0.313363 0.359332 0.314075 0.313363 0.268819 0.314075 0.269505 0.268819 0.224547 0.269505 0.225117 0.224547 0.180176 0.225117 0.180601 0.180176 0.135527 0.180601 0.135814 0.135527 0.0905663 0.135814 0.0907368 0.0905663 0.0453525 0.0907368 0.0454307 0.0453525 0 0.0454307 0 0 -0.0453525 0 -0.0454307 -0.0453525 -0.0905663 -0.0454307 -0.0907368 -0.0905663 -0.135527 -0.0907368 -0.135814 -0.135527 -0.180176 -0.135814 -0.180601 -0.180176 -0.224547 -0.180601 -0.225117 -0.224547 -0.268819 -0.225117 -0.269505 -0.268819 -0.313363 -0.269505 -0.314075 -0.313363 -0.358767 -0.314075 -0.359332 -0.358767 -0.405822 -0.359332 -0.405964 -0.405822 -0.455448 -0.405964 -0.454775 -0.455448 -0.50857 -0.454775 -0.506588 -0.50857 -0.565976 -0.506588 -0.562151 -0.565976 -0.628181 -0.562151 -0.622142 -0.628181 -0.695126 -0.622142 -0.687158 -0.695126 -0.765065 -0.687158 -0.756834 -0.765065 -0.831921 -0.756834 -0.826339 -0.831921 -0.884012 -0.826339 -0.882585 -0.884012 -0.915404 -0.882585 -0.915807 -0.915404 -0.94786 -0.915807 -0.950146 -0.94786 -1.00243 -0.950146 -1.00877 -1.00243 -1.07273 -1.00877 -1.08129 -1.07273 -1.14762 -1.08129 -1.15506 -1.14762 -1.22205 -1.15506 -1.22619 -1.22205 -1.29545 -1.22619 -1.29545 1.29545 1.22619 1.29545 1.23106 1.22619 1.15506 1.23106 1.16413 1.15506 1.08129 1.16413 1.09231 1.08129 1.00877 1.09231 1.01747 1.00877 0.950146 1.01747 0.953425 0.950146 0.915807 0.953425 0.916272 0.915807 0.882585 0.916272 0.880348 0.882585 0.826339 0.880348 0.818637 0.826339 0.756834 0.818637 0.746376 0.756834 0.687158 0.746376 0.677724 0.687158 0.622142 0.677724 0.615377 0.622142 0.562151 0.615377 0.558058 0.562151 0.506588 0.558058 0.504588 0.506588 0.454775 0.504588 0.454213 0.454775 0.405964 0.454213 0.406269 0.405964 0.359332 0.406269 0.360065 0.359332 0.314075 0.360065 0.314932 0.314075 0.269505 0.314932 0.270302 0.269505 0.225117 0.270302 0.225763 0.225117 0.180601 0.225763 0.181072 0.180601 0.135814 0.181072 0.136124 0.135814 0.0907368 0.136124 0.090918 0.0907368 0.0454307 0.090918 0.0455124 0.0454307 0 0.0455124 0 0 -0.0454307 0 -0.0455124 -0.0454307 -0.0907368 -0.0455124 -0.090918 -0.0907368 -0.135814 -0.090918 -0.136124 -0.135814 -0.180601 -0.136124 -0.181072 -0.180601 -0.225117 -0.181072 -0.225763 -0.225117 -0.269505 -0.225763 -0.270302 -0.269505 -0.314075 -0.270302 -0.314932 -0.314075 -0.359332 -0.314932 -0.360065 -0.359332 -0.405964 -0.360065 -0.406269 -0.405964 -0.454775 -0.406269 -0.454213 -0.454775 -0.506588 -0.454213 -0.504588 -0.506588 -0.562151 -0.504588 -0.558058 -0.562151 -0.622142 -0.558058 -0.615377 -0.622142 -0.687158 -0.615377 -0.677724 -0.687158 -0.756834 -0.677724 -0.746376 -0.756834 -0.826339 -0.746376 -0.818637 -0.826339 -0.882585 -0.818637 -0.880348 -0.882585 -0.915807 -0.880348 -0.916272 -0.915807 -0.950146 -0.916272 -0.953425 -0.950146 -1.00877 -0.953425 -1.01747 -1.00877 -1.08129 -1.01747 -1.09231 -1.08129 -1.15506 -1.09231 -1.16413 -1.15506 -1.22619 -1.16413 -1.23106 -1.22619 -1.29545 -1.23106 -1.29545 1.29545 1.23106 1.29545 1.23654 1.23106 1.16413 1.23654 1.17476 1.16413 1.09231 1.17476 1.10615 1.09231 1.01747 1.10615 1.02936 1.01747 0.953425 1.02936 0.958254 0.953425 0.916272 0.958254 0.916795 0.916272 0.880348 0.916795 0.87676 0.880348 0.818637 0.87676 0.808011 0.818637 0.746376 0.808011 0.733382 0.746376 0.677724 0.733382 0.666987 0.677724 0.615377 0.666987 0.60817 0.615377 0.558058 0.60817 0.553938 0.558058 0.504588 0.553938 0.502746 0.504588 0.454213 0.502746 0.453877 0.454213 0.406269 0.453877 0.406802 0.406269 0.360065 0.406802 0.360994 0.360065 0.314932 0.360994 0.315938 0.314932 0.270302 0.315938 0.271198 0.270302 0.225763 0.271198 0.226466 0.225763 0.181072 0.226466 0.181569 0.181072 0.136124 0.181569 0.136443 0.136124 0.090918 0.136443 0.0910985 0.090918 0.0455124 0.0910985 0.0455921 0.0455124 0 0.0455921 0 0 -0.0455124 0 -0.0455921 -0.0455124 -0.090918 -0.0455921 -0.0910985 -0.090918 -0.136124 -0.0910985 -0.136443 -0.136124 -0.181072 -0.136443 -0.181569 -0.181072 -0.225763 -0.181569 -0.226466 -0.225763 -0.270302 -0.226466 -0.271198 -0.270302 -0.314932 -0.271198 -0.315938 -0.314932 -0.360065 -0.315938 -0.360994 -0.360065 -0.406269 -0.360994 -0.406802 -0.406269 -0.454213 -0.406802 -0.453877 -0.454213 -0.504588 -0.453877 -0.502746 -0.504588 -0.558058 -0.502746 -0.553938 -0.558058 -0.615377 -0.553938 -0.60817 -0.615377 -0.677724 -0.60817 -0.666987 -0.677724 -0.746376 -0.666987 -0.733382 -0.746376 -0.818637 -0.733382 -0.808011 -0.818637 -0.880348 -0.808011 -0.87676 -0.880348 -0.916272 -0.87676 -0.916795 -0.916272 -0.953425 -0.916795 -0.958254 -0.953425 -1.01747 -0.958254 -1.02936 -1.01747 -1.09231 -1.02936 -1.10615 -1.09231 -1.16413 -1.10615 -1.17476 -1.16413 -1.23106 -1.17476 -1.23654 -1.23106 -1.29545 -1.23654 -1.29545 1.29545 1.23654 1.29545 1.24246 1.23654 1.17476 1.24246 1.18672 1.17476 1.10615 1.18672 1.12308 1.10615 1.02936 1.12308 1.04558 1.02936 0.958254 1.04558 0.965555 0.958254 0.916795 0.965555 0.917368 0.916795 0.87676 0.917368 0.870915 0.87676 0.808011 0.870915 0.793343 0.808011 0.733382 0.793343 0.717609 0.733382 0.666987 0.717609 0.655245 0.666987 0.60817 0.655245 0.60085 0.60817 0.553938 0.60085 0.55004 0.553938 0.502746 0.55004 0.50124 0.502746 0.453877 0.50124 0.453885 0.453877 0.406802 0.453885 0.407632 0.406802 0.360994 0.407632 0.362149 0.360994 0.315938 0.362149 0.317095 0.315938 0.271198 0.317095 0.272181 0.271198 0.226466 0.272181 0.227209 0.226466 0.181569 0.227209 0.182074 0.181569 0.136443 0.182074 0.136753 0.136443 0.0910985 0.136753 0.0912669 0.0910985 0.0455921 0.0912669 0.0456637 0.0455921 0 0.0456637 0 0 -0.0455921 0 -0.0456637 -0.0455921 -0.0910985 -0.0456637 -0.0912669 -0.0910985 -0.136443 -0.0912669 -0.136753 -0.136443 -0.181569 -0.136753 -0.182074 -0.181569 -0.226466 -0.182074 -0.227209 -0.226466 -0.271198 -0.227209 -0.272181 -0.271198 -0.315938 -0.272181 -0.317095 -0.315938 -0.360994 -0.317095 -0.362149 -0.360994 -0.406802 -0.362149 -0.407632 -0.406802 -0.453877 -0.407632 -0.453885 -0.453877 -0.502746 -0.453885 -0.50124 -0.502746 -0.553938 -0.50124 -0.55004 -0.553938 -0.60817 -0.55004 -0.60085 -0.60817 -0.666987 -0.60085 -0.655245 -0.666987 -0.733382 -0.655245 -0.717609 -0.733382 -0.808011 -0.717609 -0.793343 -0.808011 -0.87676 -0.793343 -0.870915 -0.87676 -0.916795 -0.870915 -0.917368 -0.916795 -0.958254 -0.917368 -0.965555 -0.958254 -1.02936 -0.965555 -1.04558 -1.02936 -1.10615 -1.04558 -1.12308 -1.10615 -1.17476 -1.12308 -1.18672 -1.17476 -1.23654 -1.18672 -1.24246 -1.23654 -1.29545 -1.24246 -1.29545 1.29545 1.24246 1.29545 1.2486 1.24246 1.18672 1.2486 1.19959 1.18672 1.12308 1.19959 1.14308 1.12308 1.04558 1.14308 1.06763 1.04558 0.965555 1.06763 0.976881 0.965555 0.917368 0.976881 0.917983 0.917368 0.870915 0.917983 0.861276 0.870915 0.793343 0.861276 0.773134 0.793343 0.717609 0.773134 0.699078 0.717609 0.655245 0.699078 0.642991 0.655245 0.60085 0.642991 0.593777 0.60085 0.55004 0.593777 0.546615 0.55004 0.50124 0.546615 0.500249 0.50124 0.453885 0.500249 0.454353 0.453885 0.407632 0.454353 0.408824 0.407632 0.362149 0.408824 0.363557 0.362149 0.317095 0.363557 0.318406 0.317095 0.272181 0.318406 0.273239 0.272181 0.227209 0.273239 0.22797 0.227209 0.182074 0.22797 0.182567 0.182074 0.136753 0.182567 0.137038 0.136753 0.0912669 0.137038 0.0914113 0.0912669 0.0456637 0.0914113 0.0457212 0.0456637 0 0.0457212 0 0 -0.0456637 0 -0.0457212 -0.0456637 -0.0912669 -0.0457212 -0.0914113 -0.0912669 -0.136753 -0.0914113 -0.137038 -0.136753 -0.182074 -0.137038 -0.182567 -0.182074 -0.227209 -0.182567 -0.22797 -0.227209 -0.272181 -0.22797 -0.273239 -0.272181 -0.317095 -0.273239 -0.318406 -0.317095 -0.362149 -0.318406 -0.363557 -0.362149 -0.407632 -0.363557 -0.408824 -0.407632 -0.453885 -0.408824 -0.454353 -0.453885 -0.50124 -0.454353 -0.500249 -0.50124 -0.55004 -0.500249 -0.546615 -0.55004 -0.60085 -0.546615 -0.593777 -0.60085 -0.655245 -0.593777 -0.642991 -0.655245 -0.717609 -0.642991 -0.699078 -0.717609 -0.793343 -0.699078 -0.773134 -0.793343 -0.870915 -0.773134 -0.861276 -0.870915 -0.917368 -0.861276 -0.917983 -0.917368 -0.965555 -0.917983 -0.976881 -0.965555 -1.04558 -0.976881 -1.06763 -1.04558 -1.12308 -1.06763 -1.14308 -1.12308 -1.18672 -1.14308 -1.19959 -1.18672 -1.24246 -1.19959 -1.2486 -1.24246 -1.29545 -1.2486 -1.29545 1.29545 1.2486 1.29545 1.25477 1.2486 1.19959 1.25477 1.21275 1.19959 1.14308 1.21275 1.16547 1.14308 1.06763 1.16547 1.09723 1.06763 0.976881 1.09723 0.994977 0.976881 0.917983 0.994977 0.918633 0.917983 0.861276 0.918633 0.845108 0.861276 0.773134 0.845108 0.745591 0.773134 0.699078 0.745591 0.678438 0.699078 0.642991 0.678438 0.63089 0.642991 0.593777 0.63089 0.587303 0.593777 0.546615 0.587303 0.543911 0.546615 0.500249 0.543911 0.499948 0.500249 0.454353 0.499948 0.455392 0.454353 0.408824 0.455392 0.41044 0.408824 0.363557 0.41044 0.365242 0.363557 0.318406 0.365242 0.319869 0.318406 0.273239 0.319869 0.274355 0.273239 0.22797 0.274355 0.228728 0.22797 0.182567 0.228728 0.183025 0.182567 0.137038 0.183025 0.13728 0.137038 0.0914113 0.13728 0.0915193 0.0914113 0.0457212 0.0915193 0.0457585 0.0457212 0 0.0457585 0 0 -0.0457212 0 -0.0457585 -0.0457212 -0.0914113 -0.0457585 -0.0915193 -0.0914113 -0.137038 -0.0915193 -0.13728 -0.137038 -0.182567 -0.13728 -0.183025 -0.182567 -0.22797 -0.183025 -0.228728 -0.22797 -0.273239 -0.228728 -0.274355 -0.273239 -0.318406 -0.274355 -0.319869 -0.318406 -0.363557 -0.319869 -0.365242 -0.363557 -0.408824 -0.365242 -0.41044 -0.408824 -0.454353 -0.41044 -0.455392 -0.454353 -0.500249 -0.455392 -0.499948 -0.500249 -0.546615 -0.499948 -0.543911 -0.546615 -0.593777 -0.543911 -0.587303 -0.593777 -0.642991 -0.587303 -0.63089 -0.642991 -0.699078 -0.63089 -0.678438 -0.699078 -0.773134 -0.678438 -0.745591 -0.773134 -0.861276 -0.745591 -0.845108 -0.861276 -0.917983 -0.845108 -0.918633 -0.917983 -0.976881 -0.918633 -0.994977 -0.976881 -1.06763 -0.994977 -1.09723 -1.06763 -1.14308 -1.09723 -1.16547 -1.14308 -1.19959 -1.16547 -1.21275 -1.19959 -1.2486 -1.21275 -1.25477 -1.2486 -1.29545 -1.25477 -1.29545 1.29545 1.25477 1.29545 1.26076 1.25477 1.21275 1.26076 1.22561 1.21275 1.16547 1.22561 1.18852 1.16547 1.09723 1.18852 1.13557 1.09723 0.994977 1.13557 1.02517 0.994977 0.918633 1.02517 0.919299 0.918633 0.845108 0.919299 0.817044 0.845108 0.745591 0.817044 0.709417 0.745591 0.678438 0.709417 0.657403 0.678438 0.63089 0.657403 0.619589 0.63089 0.587303 0.619589 0.581758 0.587303 0.543911 0.581758 0.542181 0.543911 0.499948 0.542181 0.500503 0.499948 0.455392 0.500503 0.457108 0.455392 0.41044 0.457108 0.412535 0.41044 0.365242 0.412535 0.367222 0.365242 0.319869 0.367222 0.321476 0.319869 0.274355 0.321476 0.275506 0.274355 0.228728 0.275506 0.229458 0.228728 0.183025 0.229458 0.183424 0.183025 0.13728 0.183424 0.13746 0.13728 0.0915193 0.13746 0.0915786 0.0915193 0.0457585 0.0915786 0.0457693 0.0457585 0 0.0457693 0 0 -0.0457585 0 -0.0457693 -0.0457585 -0.0915193 -0.0457693 -0.0915786 -0.0915193 -0.13728 -0.0915786 -0.13746 -0.13728 -0.183025 -0.13746 -0.183424 -0.183025 -0.228728 -0.183424 -0.229458 -0.228728 -0.274355 -0.229458 -0.275506 -0.274355 -0.319869 -0.275506 -0.321476 -0.319869 -0.365242 -0.321476 -0.367222 -0.365242 -0.41044 -0.367222 -0.412535 -0.41044 -0.455392 -0.412535 -0.457108 -0.455392 -0.499948 -0.457108 -0.500503 -0.499948 -0.543911 -0.500503 -0.542181 -0.543911 -0.587303 -0.542181 -0.581758 -0.587303 -0.63089 -0.581758 -0.619589 -0.63089 -0.678438 -0.619589 -0.657403 -0.678438 -0.745591 -0.657403 -0.709417 -0.745591 -0.845108 -0.709417 -0.817044 -0.845108 -0.918633 -0.817044 -0.919299 -0.918633 -0.994977 -0.919299 -1.02517 -0.994977 -1.09723 -1.02517 -1.13557 -1.09723 -1.16547 -1.13557 -1.18852 -1.16547 -1.21275 -1.18852 -1.22561 -1.21275 -1.25477 -1.22561 -1.26076 -1.25477 -1.29545 -1.26076 -1.29545 1.29545 1.26076 1.29545 1.26634 1.26076 1.22561 1.26634 1.23787 1.22561 1.18852 1.23787 1.20991 1.18852 1.13557 1.20991 1.17953 1.13557 1.02517 1.17953 1.07932 1.02517 0.919299 1.07932 0.919926 0.919299 0.817044 0.919926 0.764948 0.817044 0.709417 0.764948 0.667577 0.709417 0.657403 0.667577 0.638276 0.657403 0.619589 0.638276 0.609457 0.619589 0.581758 0.609457 0.577506 0.581758 0.542181 0.577506 0.541661 0.542181 0.500503 0.541661 0.502072 0.500503 0.457108 0.502072 0.459602 0.457108 0.412535 0.459602 0.415159 0.412535 0.367222 0.415159 0.369506 0.367222 0.321476 0.369506 0.3