# vtk DataFile Version 3.0
#This file was generated by the deal.II library on 2017/9/27 at 13:17:37
ASCII
DATASET UNSTRUCTURED_GRID

POINTS 2688 double
-5.63207 0 0
-5.3974 0 0
-5.63207 0.0714286 0
-5.3974 0.0714286 0
-5.3974 0 0
-5.16273 0 0
-5.3974 0.0714286 0
-5.16273 0.0714286 0
-5.16273 0 0
-4.92806 0 0
-5.16273 0.0714286 0
-4.92806 0.0714286 0
-4.92806 0 0
-4.69339 0 0
-4.92806 0.0714286 0
-4.69339 0.0714286 0
-4.69339 0 0
-4.45872 0 0
-4.69339 0.0714286 0
-4.45872 0.0714286 0
-4.45872 0 0
-4.22405 0 0
-4.45872 0.0714286 0
-4.22405 0.0714286 0
-4.22405 0 0
-3.98938 0 0
-4.22405 0.0714286 0
-3.98938 0.0714286 0
-3.98938 0 0
-3.75472 0 0
-3.98938 0.0714286 0
-3.75472 0.0714286 0
-3.75472 0 0
-3.52005 0 0
-3.75472 0.0714286 0
-3.52005 0.0714286 0
-3.52005 0 0
-3.28538 0 0
-3.52005 0.0714286 0
-3.28538 0.0714286 0
-3.28538 0 0
-3.05071 0 0
-3.28538 0.0714286 0
-3.05071 0.0714286 0
-3.05071 0 0
-2.81604 0 0
-3.05071 0.0714286 0
-2.81604 0.0714286 0
-2.81604 0 0
-2.58137 0 0
-2.81604 0.0714286 0
-2.58137 0.0714286 0
-2.58137 0 0
-2.3467 0 0
-2.58137 0.0714286 0
-2.3467 0.0714286 0
-2.3467 0 0
-2.11203 0 0
-2.3467 0.0714286 0
-2.11203 0.0714286 0
-2.11203 0 0
-1.87736 0 0
-2.11203 0.0714286 0
-1.87736 0.0714286 0
-1.87736 0 0
-1.64269 0 0
-1.87736 0.0714286 0
-1.64269 0.0714286 0
-1.64269 0 0
-1.40802 0 0
-1.64269 0.0714286 0
-1.40802 0.0714286 0
-1.40802 0 0
-1.17335 0 0
-1.40802 0.0714286 0
-1.17335 0.0714286 0
-1.17335 0 0
-0.938679 0 0
-1.17335 0.0714286 0
-0.938679 0.0714286 0
-0.938679 0 0
-0.704009 0 0
-0.938679 0.0714286 0
-0.704009 0.0714286 0
-0.704009 0 0
-0.469339 0 0
-0.704009 0.0714286 0
-0.469339 0.0714286 0
-0.469339 0 0
-0.23467 0 0
-0.469339 0.0714286 0
-0.23467 0.0714286 0
-0.23467 0 0
0 0 0
-0.23467 0.0714286 0
0 0.0714286 0
0 0 0
0.23467 0 0
0 0.0714286 0
0.23467 0.0714286 0
0.23467 0 0
0.469339 0 0
0.23467 0.0714286 0
0.469339 0.0714286 0
0.469339 0 0
0.704009 0 0
0.469339 0.0714286 0
0.704009 0.0714286 0
0.704009 0 0
0.938679 0 0
0.704009 0.0714286 0
0.938679 0.0714286 0
0.938679 0 0
1.17335 0 0
0.938679 0.0714286 0
1.17335 0.0714286 0
1.17335 0 0
1.40802 0 0
1.17335 0.0714286 0
1.40802 0.0714286 0
1.40802 0 0
1.64269 0 0
1.40802 0.0714286 0
1.64269 0.0714286 0
1.64269 0 0
1.87736 0 0
1.64269 0.0714286 0
1.87736 0.0714286 0
1.87736 0 0
2.11203 0 0
1.87736 0.0714286 0
2.11203 0.0714286 0
2.11203 0 0
2.3467 0 0
2.11203 0.0714286 0
2.3467 0.0714286 0
2.3467 0 0
2.58137 0 0
2.3467 0.0714286 0
2.58137 0.0714286 0
2.58137 0 0
2.81604 0 0
2.58137 0.0714286 0
2.81604 0.0714286 0
2.81604 0 0
3.05071 0 0
2.81604 0.0714286 0
3.05071 0.0714286 0
3.05071 0 0
3.28538 0 0
3.05071 0.0714286 0
3.28538 0.0714286 0
3.28538 0 0
3.52005 0 0
3.28538 0.0714286 0
3.52005 0.0714286 0
3.52005 0 0
3.75472 0 0
3.52005 0.0714286 0
3.75472 0.0714286 0
3.75472 0 0
3.98938 0 0
3.75472 0.0714286 0
3.98938 0.0714286 0
3.98938 0 0
4.22405 0 0
3.98938 0.0714286 0
4.22405 0.0714286 0
4.22405 0 0
4.45872 0 0
4.22405 0.0714286 0
4.45872 0.0714286 0
4.45872 0 0
4.69339 0 0
4.45872 0.0714286 0
4.69339 0.0714286 0
4.69339 0 0
4.92806 0 0
4.69339 0.0714286 0
4.92806 0.0714286 0
4.92806 0 0
5.16273 0 0
4.92806 0.0714286 0
5.16273 0.0714286 0
5.16273 0 0
5.3974 0 0
5.16273 0.0714286 0
5.3974 0.0714286 0
5.3974 0 0
5.63207 0 0
5.3974 0.0714286 0
5.63207 0.0714286 0
-5.63207 0.0714286 0
-5.3974 0.0714286 0
-5.63207 0.142857 0
-5.3974 0.142857 0
-5.3974 0.0714286 0
-5.16273 0.0714286 0
-5.3974 0.142857 0
-5.16273 0.142857 0
-5.16273 0.0714286 0
-4.92806 0.0714286 0
-5.16273 0.142857 0
-4.92806 0.142857 0
-4.92806 0.0714286 0
-4.69339 0.0714286 0
-4.92806 0.142857 0
-4.69339 0.142857 0
-4.69339 0.0714286 0
-4.45872 0.0714286 0
-4.69339 0.142857 0
-4.45872 0.142857 0
-4.45872 0.0714286 0
-4.22405 0.0714286 0
-4.45872 0.142857 0
-4.22405 0.142857 0
-4.22405 0.0714286 0
-3.98938 0.0714286 0
-4.22405 0.142857 0
-3.98938 0.142857 0
-3.98938 0.0714286 0
-3.75472 0.0714286 0
-3.98938 0.142857 0
-3.75472 0.142857 0
-3.75472 0.0714286 0
-3.52005 0.0714286 0
-3.75472 0.142857 0
-3.52005 0.142857 0
-3.52005 0.0714286 0
-3.28538 0.0714286 0
-3.52005 0.142857 0
-3.28538 0.142857 0
-3.28538 0.0714286 0
-3.05071 0.0714286 0
-3.28538 0.142857 0
-3.05071 0.142857 0
-3.05071 0.0714286 0
-2.81604 0.0714286 0
-3.05071 0.142857 0
-2.81604 0.142857 0
-2.81604 0.0714286 0
-2.58137 0.0714286 0
-2.81604 0.142857 0
-2.58137 0.142857 0
-2.58137 0.0714286 0
-2.3467 0.0714286 0
-2.58137 0.142857 0
-2.3467 0.142857 0
-2.3467 0.0714286 0
-2.11203 0.0714286 0
-2.3467 0.142857 0
-2.11203 0.142857 0
-2.11203 0.0714286 0
-1.87736 0.0714286 0
-2.11203 0.142857 0
-1.87736 0.142857 0
-1.87736 0.0714286 0
-1.64269 0.0714286 0
-1.87736 0.142857 0
-1.64269 0.142857 0
-1.64269 0.0714286 0
-1.40802 0.0714286 0
-1.64269 0.142857 0
-1.40802 0.142857 0
-1.40802 0.0714286 0
-1.17335 0.0714286 0
-1.40802 0.142857 0
-1.17335 0.142857 0
-1.17335 0.0714286 0
-0.938679 0.0714286 0
-1.17335 0.142857 0
-0.938679 0.142857 0
-0.938679 0.0714286 0
-0.704009 0.0714286 0
-0.938679 0.142857 0
-0.704009 0.142857 0
-0.704009 0.0714286 0
-0.469339 0.0714286 0
-0.704009 0.142857 0
-0.469339 0.142857 0
-0.469339 0.0714286 0
-0.23467 0.0714286 0
-0.469339 0.142857 0
-0.23467 0.142857 0
-0.23467 0.0714286 0
0 0.0714286 0
-0.23467 0.142857 0
0 0.142857 0
0 0.0714286 0
0.23467 0.0714286 0
0 0.142857 0
0.23467 0.142857 0
0.23467 0.0714286 0
0.469339 0.0714286 0
0.23467 0.142857 0
0.469339 0.142857 0
0.469339 0.0714286 0
0.704009 0.0714286 0
0.469339 0.142857 0
0.704009 0.142857 0
0.704009 0.0714286 0
0.938679 0.0714286 0
0.704009 0.142857 0
0.938679 0.142857 0
0.938679 0.0714286 0
1.17335 0.0714286 0
0.938679 0.142857 0
1.17335 0.142857 0
1.17335 0.0714286 0
1.40802 0.0714286 0
1.17335 0.142857 0
1.40802 0.142857 0
1.40802 0.0714286 0
1.64269 0.0714286 0
1.40802 0.142857 0
1.64269 0.142857 0
1.64269 0.0714286 0
1.87736 0.0714286 0
1.64269 0.142857 0
1.87736 0.142857 0
1.87736 0.0714286 0
2.11203 0.0714286 0
1.87736 0.142857 0
2.11203 0.142857 0
2.11203 0.0714286 0
2.3467 0.0714286 0
2.11203 0.142857 0
2.3467 0.142857 0
2.3467 0.0714286 0
2.58137 0.0714286 0
2.3467 0.142857 0
2.58137 0.142857 0
2.58137 0.0714286 0
2.81604 0.0714286 0
2.58137 0.142857 0
2.81604 0.142857 0
2.81604 0.0714286 0
3.05071 0.0714286 0
2.81604 0.142857 0
3.05071 0.142857 0
3.05071 0.0714286 0
3.28538 0.0714286 0
3.05071 0.142857 0
3.28538 0.142857 0
3.28538 0.0714286 0
3.52005 0.0714286 0
3.28538 0.142857 0
3.52005 0.142857 0
3.52005 0.0714286 0
3.75472 0.0714286 0
3.52005 0.142857 0
3.75472 0.142857 0
3.75472 0.0714286 0
3.98938 0.0714286 0
3.75472 0.142857 0
3.98938 0.142857 0
3.98938 0.0714286 0
4.22405 0.0714286 0
3.98938 0.142857 0
4.22405 0.142857 0
4.22405 0.0714286 0
4.45872 0.0714286 0
4.22405 0.142857 0
4.45872 0.142857 0
4.45872 0.0714286 0
4.69339 0.0714286 0
4.45872 0.142857 0
4.69339 0.142857 0
4.69339 0.0714286 0
4.92806 0.0714286 0
4.69339 0.142857 0
4.92806 0.142857 0
4.92806 0.0714286 0
5.16273 0.0714286 0
4.92806 0.142857 0
5.16273 0.142857 0
5.16273 0.0714286 0
5.3974 0.0714286 0
5.16273 0.142857 0
5.3974 0.142857 0
5.3974 0.0714286 0
5.63207 0.0714286 0
5.3974 0.142857 0
5.63207 0.142857 0
-5.63207 0.142857 0
-5.3974 0.142857 0
-5.63207 0.214286 0
-5.3974 0.214286 0
-5.3974 0.142857 0
-5.16273 0.142857 0
-5.3974 0.214286 0
-5.16273 0.214286 0
-5.16273 0.142857 0
-4.92806 0.142857 0
-5.16273 0.214286 0
-4.92806 0.214286 0
-4.92806 0.142857 0
-4.69339 0.142857 0
-4.92806 0.214286 0
-4.69339 0.214286 0
-4.69339 0.142857 0
-4.45872 0.142857 0
-4.69339 0.214286 0
-4.45872 0.214286 0
-4.45872 0.142857 0
-4.22405 0.142857 0
-4.45872 0.214286 0
-4.22405 0.214286 0
-4.22405 0.142857 0
-3.98938 0.142857 0
-4.22405 0.214286 0
-3.98938 0.214286 0
-3.98938 0.142857 0
-3.75472 0.142857 0
-3.98938 0.214286 0
-3.75472 0.214286 0
-3.75472 0.142857 0
-3.52005 0.142857 0
-3.75472 0.214286 0
-3.52005 0.214286 0
-3.52005 0.142857 0
-3.28538 0.142857 0
-3.52005 0.214286 0
-3.28538 0.214286 0
-3.28538 0.142857 0
-3.05071 0.142857 0
-3.28538 0.214286 0
-3.05071 0.214286 0
-3.05071 0.142857 0
-2.81604 0.142857 0
-3.05071 0.214286 0
-2.81604 0.214286 0
-2.81604 0.142857 0
-2.58137 0.142857 0
-2.81604 0.214286 0
-2.58137 0.214286 0
-2.58137 0.142857 0
-2.3467 0.142857 0
-2.58137 0.214286 0
-2.3467 0.214286 0
-2.3467 0.142857 0
-2.11203 0.142857 0
-2.3467 0.214286 0
-2.11203 0.214286 0
-2.11203 0.142857 0
-1.87736 0.142857 0
-2.11203 0.214286 0
-1.87736 0.214286 0
-1.87736 0.142857 0
-1.64269 0.142857 0
-1.87736 0.214286 0
-1.64269 0.214286 0
-1.64269 0.142857 0
-1.40802 0.142857 0
-1.64269 0.214286 0
-1.40802 0.214286 0
-1.40802 0.142857 0
-1.17335 0.142857 0
-1.40802 0.214286 0
-1.17335 0.214286 0
-1.17335 0.142857 0
-0.938679 0.142857 0
-1.17335 0.214286 0
-0.938679 0.214286 0
-0.938679 0.142857 0
-0.704009 0.142857 0
-0.938679 0.214286 0
-0.704009 0.214286 0
-0.704009 0.142857 0
-0.469339 0.142857 0
-0.704009 0.214286 0
-0.469339 0.214286 0
-0.469339 0.142857 0
-0.23467 0.142857 0
-0.469339 0.214286 0
-0.23467 0.214286 0
-0.23467 0.142857 0
0 0.142857 0
-0.23467 0.214286 0
0 0.214286 0
0 0.142857 0
0.23467 0.142857 0
0 0.214286 0
0.23467 0.214286 0
0.23467 0.142857 0
0.469339 0.142857 0
0.23467 0.214286 0
0.469339 0.214286 0
0.469339 0.142857 0
0.704009 0.142857 0
0.469339 0.214286 0
0.704009 0.214286 0
0.704009 0.142857 0
0.938679 0.142857 0
0.704009 0.214286 0
0.938679 0.214286 0
0.938679 0.142857 0
1.17335 0.142857 0
0.938679 0.214286 0
1.17335 0.214286 0
1.17335 0.142857 0
1.40802 0.142857 0
1.17335 0.214286 0
1.40802 0.214286 0
1.40802 0.142857 0
1.64269 0.142857 0
1.40802 0.214286 0
1.64269 0.214286 0
1.64269 0.142857 0
1.87736 0.142857 0
1.64269 0.214286 0
1.87736 0.214286 0
1.87736 0.142857 0
2.11203 0.142857 0
1.87736 0.214286 0
2.11203 0.214286 0
2.11203 0.142857 0
2.3467 0.142857 0
2.11203 0.214286 0
2.3467 0.214286 0
2.3467 0.142857 0
2.58137 0.142857 0
2.3467 0.214286 0
2.58137 0.214286 0
2.58137 0.142857 0
2.81604 0.142857 0
2.58137 0.214286 0
2.81604 0.214286 0
2.81604 0.142857 0
3.05071 0.142857 0
2.81604 0.214286 0
[...]
POINT_DATA 2688
SCALARS x1_displacement double 1
LOOKUP_TABLE default
2.05114 1.95002 2.05114 1.95011 1.95002 1.85173 1.95011 1.85187 1.85173 1.75912 1.85187 1.75926 1.75912 1.67471 1.75926 1.67481 1.67471 1.59943 1.67481 1.59949 1.59943 1.53092 1.59949 1.53095 1.53092 1.46334 1.53095 1.46333 1.46334 1.39042 1.46333 1.39036 1.39042 1.30901 1.39036 1.30889 1.30901 1.21957 1.30889 1.21941 1.21957 1.12449 1.21941 1.12433 1.12449 1.02669 1.12433 1.02657 1.02669 0.928923 1.02657 0.92888 0.928923 0.833678 0.92888 0.833693 0.833678 0.743053 0.833693 0.743099 0.743053 0.658458 0.743099 0.658508 0.658458 0.579962 0.658508 0.580005 0.579962 0.50569 0.580005 0.505722 0.50569 0.432081 0.505722 0.432098 0.432081 0.3554 0.432098 0.355394 0.3554 0.273405 0.355394 0.273375 0.273405 0.185873 0.273375 0.185833 0.185873 0.0940688 0.185833 0.0940403 0.0940688 0 0.0940403 0 0 -0.0940688 0 -0.0940403 -0.0940688 -0.185873 -0.0940403 -0.185833 -0.185873 -0.273405 -0.185833 -0.273375 -0.273405 -0.3554 -0.273375 -0.355394 -0.3554 -0.432081 -0.355394 -0.432098 -0.432081 -0.50569 -0.432098 -0.505722 -0.50569 -0.579962 -0.505722 -0.580005 -0.579962 -0.658458 -0.580005 -0.658508 -0.658458 -0.743053 -0.658508 -0.743099 -0.743053 -0.833678 -0.743099 -0.833693 -0.833678 -0.928923 -0.833693 -0.92888 -0.928923 -1.02669 -0.92888 -1.02657 -1.02669 -1.12449 -1.02657 -1.12433 -1.12449 -1.21957 -1.12433 -1.21941 -1.21957 -1.30901 -1.21941 -1.30889 -1.30901 -1.39042 -1.30889 -1.39036 -1.39042 -1.46334 -1.39036 -1.46333 -1.46334 -1.53092 -1.46333 -1.53095 -1.53092 -1.59943 -1.53095 -1.59949 -1.59943 -1.67471 -1.59949 -1.67481 -1.67471 -1.75912 -1.67481 -1.75926 -1.75912 -1.85173 -1.75926 -1.85187 -1.85173 -1.95002 -1.85187 -1.95011 -1.95002 -2.05114 -1.95011 -2.05114 2.05114 1.95011 2.05114 1.95042 1.95011 1.85187 1.95042 1.85235 1.85187 1.75926 1.85235 1.75974 1.75926 1.67481 1.75974 1.67514 1.67481 1.59949 1.67514 1.59967 1.59949 1.53095 1.59967 1.53103 1.53095 1.46333 1.53103 1.46332 1.46333 1.39036 1.46332 1.39017 1.39036 1.30889 1.39017 1.30849 1.30889 1.21941 1.30849 1.21888 1.21941 1.12433 1.21888 1.12384 1.12433 1.02657 1.12384 1.02626 1.02657 0.92888 1.02626 0.928791 0.92888 0.833693 0.928791 0.833788 0.833693 0.743099 0.833788 0.743281 0.743099 0.658508 0.743281 0.658689 0.658508 0.580005 0.658689 0.580145 0.580005 0.505722 0.580145 0.505816 0.505722 0.432098 0.505816 0.432135 0.432098 0.355394 0.432135 0.355349 0.355394 0.273375 0.355349 0.273249 0.273375 0.185833 0.273249 0.185677 0.185833 0.0940403 0.185677 0.0939333 0.0940403 0 0.0939333 0 0 -0.0940403 0 -0.0939333 -0.0940403 -0.185833 -0.0939333 -0.185677 -0.185833 -0.273375 -0.185677 -0.273249 -0.273375 -0.355394 -0.273249 -0.355349 -0.355394 -0.432098 -0.355349 -0.432135 -0.432098 -0.505722 -0.432135 -0.505816 -0.505722 -0.580005 -0.505816 -0.580145 -0.580005 -0.658508 -0.580145 -0.658689 -0.658508 -0.743099 -0.658689 -0.743281 -0.743099 -0.833693 -0.743281 -0.833788 -0.833693 -0.92888 -0.833788 -0.928791 -0.92888 -1.02657 -0.928791 -1.02626 -1.02657 -1.12433 -1.02626 -1.12384 -1.12433 -1.21941 -1.12384 -1.21888 -1.21941 -1.30889 -1.21888 -1.30849 -1.30889 -1.39036 -1.30849 -1.39017 -1.39036 -1.46333 -1.39017 -1.46332 -1.46333 -1.53095 -1.46332 -1.53103 -1.53095 -1.59949 -1.53103 -1.59967 -1.59949 -1.67481 -1.59967 -1.67514 -1.67481 -1.75926 -1.67514 -1.75974 -1.75926 -1.85187 -1.75974 -1.85235 -1.85187 -1.95011 -1.85235 -1.95042 -1.95011 -2.05114 -1.95042 -2.05114 2.05114 1.95042 2.05114 1.95095 1.95042 1.85235 1.95095 1.8532 1.85235 1.75974 1.8532 1.76057 1.75974 1.67514 1.76057 1.67571 1.67514 1.59967 1.67571 1.59996 1.59967 1.53103 1.59996 1.53116 1.53103 1.46332 1.53116 1.46329 1.46332 1.39017 1.46329 1.38984 1.39017 1.30849 1.38984 1.30779 1.30849 1.21888 1.30779 1.21797 1.21888 1.12384 1.21797 1.12301 1.12384 1.02626 1.12301 1.02575 1.02626 0.928791 1.02575 0.928688 0.928791 0.833788 0.928688 0.833999 0.833788 0.743281 0.833999 0.743626 0.743281 0.658689 0.743626 0.659012 0.658689 0.580145 0.659012 0.58038 0.580145 0.505816 0.58038 0.505966 0.505816 0.432135 0.505966 0.432183 0.432135 0.355349 0.432183 0.355252 0.355349 0.273249 0.355252 0.273007 0.273249 0.185677 0.273007 0.185384 0.185677 0.0939333 0.185384 0.0937346 0.0939333 0 0.0937346 0 0 -0.0939333 0 -0.0937346 -0.0939333 -0.185677 -0.0937346 -0.185384 -0.185677 -0.273249 -0.185384 -0.273007 -0.273249 -0.355349 -0.273007 -0.355252 -0.355349 -0.432135 -0.355252 -0.432183 -0.432135 -0.505816 -0.432183 -0.505966 -0.505816 -0.580145 -0.505966 -0.58038 -0.580145 -0.658689 -0.58038 -0.659012 -0.658689 -0.743281 -0.659012 -0.743626 -0.743281 -0.833788 -0.743626 -0.833999 -0.833788 -0.928791 -0.833999 -0.928688 -0.928791 -1.02626 -0.928688 -1.02575 -1.02626 -1.12384 -1.02575 -1.12301 -1.12384 -1.21888 -1.12301 -1.21797 -1.21888 -1.30849 -1.21797 -1.30779 -1.30849 -1.39017 -1.30779 -1.38984 -1.39017 -1.46332 -1.38984 -1.46329 -1.46332 -1.53103 -1.46329 -1.53116 -1.53103 -1.59967 -1.53116 -1.59996 -1.59967 -1.67514 -1.59996 -1.67571 -1.67514 -1.75974 -1.67571 -1.76057 -1.75974 -1.85235 -1.76057 -1.8532 -1.85235 -1.95042 -1.8532 -1.95095 -1.95042 -2.05114 -1.95095 -2.05114 2.05114 1.95095 2.05114 1.95176 1.95095 1.8532 1.95176 1.85449 1.8532 1.76057 1.85449 1.76184 1.76057 1.67571 1.76184 1.67659 1.67571 1.59996 1.67659 1.60039 1.59996 1.53116 1.60039 1.53133 1.53116 1.46329 1.53133 1.46322 1.46329 1.38984 1.46322 1.3893 1.38984 1.30779 1.3893 1.30672 1.30779 1.21797 1.30672 1.21662 1.21797 1.12301 1.21662 1.12183 1.12301 1.02575 1.12183 1.02508 1.02575 0.928688 1.02508 0.928624 0.928688 0.833999 0.928624 0.834393 0.833999 0.743626 0.834393 0.744201 0.743626 0.659012 0.744201 0.659526 0.659012 0.58038 0.659526 0.580737 0.58038 0.505966 0.580737 0.50617 0.505966 0.432183 0.50617 0.432218 0.432183 0.355252 0.432218 0.355056 0.355252 0.273007 0.355056 0.272592 0.273007 0.185384 0.272592 0.184903 0.185384 0.0937346 0.184903 0.0934133 0.0937346 0 0.0934133 0 0 -0.0937346 0 -0.0934133 -0.0937346 -0.185384 -0.0934133 -0.184903 -0.185384 -0.273007 -0.184903 -0.272592 -0.273007 -0.355252 -0.272592 -0.355056 -0.355252 -0.432183 -0.355056 -0.432218 -0.432183 -0.505966 -0.432218 -0.50617 -0.505966 -0.58038 -0.50617 -0.580737 -0.58038 -0.659012 -0.580737 -0.659526 -0.659012 -0.743626 -0.659526 -0.744201 -0.743626 -0.833999 -0.744201 -0.834393 -0.833999 -0.928688 -0.834393 -0.928624 -0.928688 -1.02575 -0.928624 -1.02508 -1.02575 -1.12301 -1.02508 -1.12183 -1.12301 -1.21797 -1.12183 -1.21662 -1.21797 -1.30779 -1.21662 -1.30672 -1.30779 -1.38984 -1.30672 -1.3893 -1.38984 -1.46329 -1.3893 -1.46322 -1.46329 -1.53116 -1.46322 -1.53133 -1.53116 -1.59996 -1.53133 -1.60039 -1.59996 -1.67571 -1.60039 -1.67659 -1.67571 -1.76057 -1.67659 -1.76184 -1.76057 -1.8532 -1.76184 -1.85449 -1.8532 -1.95095 -1.85449 -1.95176 -1.95095 -2.05114 -1.95176 -2.05114 2.05114 1.95176 2.05114 1.9529 1.95176 1.85449 1.9529 1.85633 1.85449 1.76184 1.85633 1.76369 1.76184 1.67659 1.76369 1.67788 1.67659 1.60039 1.67788 1.60102 1.60039 1.53133 1.60102 1.53155 1.53133 1.46322 1.53155 1.46305 1.46322 1.3893 1.46305 1.38847 1.3893 1.30672 1.38847 1.30515 1.30672 1.21662 1.30515 1.21474 1.21662 1.12183 1.21474 1.12024 1.12183 1.02508 1.12024 1.02426 1.02508 0.928624 1.02426 0.928663 0.928624 0.834393 0.928663 0.835069 0.834393 0.744201 0.835069 0.745112 0.744201 0.659526 0.745112 0.660317 0.659526 0.580737 0.660317 0.581259 0.580737 0.50617 0.581259 0.50643 0.50617 0.432218 0.50643 0.432199 0.432218 0.355056 0.432199 0.354686 0.355056 0.272592 0.354686 0.27191 0.272592 0.184903 0.27191 0.184151 0.184903 0.0934133 0.184151 0.0929225 0.0934133 0 0.0929225 0 0 -0.0934133 0 -0.0929225 -0.0934133 -0.184903 -0.0929225 -0.184151 -0.184903 -0.272592 -0.184151 -0.27191 -0.272592 -0.355056 -0.27191 -0.354686 -0.355056 -0.432218 -0.354686 -0.432199 -0.432218 -0.50617 -0.432199 -0.50643 -0.50617 -0.580737 -0.50643 -0.581259 -0.580737 -0.659526 -0.581259 -0.660317 -0.659526 -0.744201 -0.660317 -0.745112 -0.744201 -0.834393 -0.745112 -0.835069 -0.834393 -0.928624 -0.835069 -0.928663 -0.928624 -1.02508 -0.928663 -1.02426 -1.02508 -1.12183 -1.02426 -1.12024 -1.12183 -1.21662 -1.12024 -1.21474 -1.21662 -1.30672 -1.21474 -1.30515 -1.30672 -1.3893 -1.30515 -1.38847 -1.3893 -1.46322 -1.38847 -1.46305 -1.46322 -1.53133 -1.46305 -1.53155 -1.53133 -1.60039 -1.53155 -1.60102 -1.60039 -1.67659 -1.60102 -1.67788 -1.67659 -1.76184 -1.67788 -1.76369 -1.76184 -1.85449 -1.76369 -1.85633 -1.85449 -1.95176 -1.85633 -1.9529 -1.95176 -2.05114 -1.9529 -2.05114 2.05114 1.9529 2.05114 1.95446 1.9529 1.85633 1.95446 1.85888 1.85633 1.76369 1.85888 1.7663 1.76369 1.67788 1.7663 1.67976 1.67788 1.60102 1.67976 1.60195 1.60102 1.53155 1.60195 1.53183 1.53155 1.46305 1.53183 1.46272 1.46305 1.38847 1.46272 1.38717 1.38847 1.30515 1.38717 1.3029 1.30515 1.21474 1.3029 1.21217 1.21474 1.12024 1.21217 1.11819 1.12024 1.02426 1.11819 1.02329 1.02426 0.928663 1.02329 0.928891 0.928663 0.835069 0.928891 0.836156 0.835069 0.745112 0.836156 0.7465 0.745112 0.660317 0.7465 0.661504 0.660317 0.581259 0.661504 0.582016 0.581259 0.50643 0.582016 0.506753 0.50643 0.432199 0.506753 0.432072 0.432199 0.354686 0.432072 0.354037 0.354686 0.27191 0.354037 0.270837 0.27191 0.184151 0.270837 0.183021 0.184151 0.0929225 0.183021 0.0922012 0.0929225 0 0.0922012 0 0 -0.0929225 0 -0.0922012 -0.0929225 -0.184151 -0.0922012 -0.183021 -0.184151 -0.27191 -0.183021 -0.270837 -0.27191 -0.354686 -0.270837 -0.354037 -0.354686 -0.432199 -0.354037 -0.432072 -0.432199 -0.50643 -0.432072 -0.506753 -0.50643 -0.581259 -0.506753 -0.582016 -0.581259 -0.660317 -0.582016 -0.661504 -0.660317 -0.745112 -0.661504 -0.7465 -0.745112 -0.835069 -0.7465 -0.836156 -0.835069 -0.928663 -0.836156 -0.928891 -0.928663 -1.02426 -0.928891 -1.02329 -1.02426 -1.12024 -1.02329 -1.11819 -1.12024 -1.21474 -1.11819 -1.21217 -1.21474 -1.30515 -1.21217 -1.3029 -1.30515 -1.38847 -1.3029 -1.38717 -1.38847 -1.46305 -1.38717 -1.46272 -1.46305 -1.53155 -1.46272 -1.53183 -1.53155 -1.60102 -1.53183 -1.60195 -1.60102 -1.67788 -1.60195 -1.67976 -1.67788 -1.76369 -1.67976 -1.7663 -1.76369 -1.85633 -1.7663 -1.85888 -1.85633 -1.9529 -1.85888 -1.95446 -1.9529 -2.05114 -1.95446 -2.05114 2.05114 1.95446 2.05114 1.95652 1.95446 1.85888 1.95652 1.86232 1.85888 1.7663 1.86232 1.76995 1.7663 1.67976 1.76995 1.68246 1.67976 1.60195 1.68246 1.60331 1.60195 1.53183 1.60331 1.53218 1.53183 1.46272 1.53218 1.46211 1.46272 1.38717 1.46211 1.38521 1.38717 1.3029 1.38521 1.29973 1.3029 1.21217 1.29973 1.20874 1.21217 1.11819 1.20874 1.11561 1.11819 1.02329 1.11561 1.02222 1.02329 0.928891 1.02222 0.929403 0.928891 0.836156 0.929403 0.837806 0.836156 0.7465 0.837806 0.748545 0.7465 0.661504 0.748545 0.663246 0.661504 0.582016 0.663246 0.583099 0.582016 0.506753 0.583099 0.507147 0.506753 0.432072 0.507147 0.43176 0.432072 0.354037 0.43176 0.352969 0.354037 0.270837 0.352969 0.26921 0.270837 0.183021 0.26921 0.181377 0.183021 0.0922012 0.181377 0.091176 0.0922012 0 0.091176 0 0 -0.0922012 0 -0.091176 -0.0922012 -0.183021 -0.091176 -0.181377 -0.183021 -0.270837 -0.181377 -0.26921 -0.270837 -0.354037 -0.26921 -0.352969 -0.354037 -0.432072 -0.352969 -0.43176 -0.432072 -0.506753 -0.43176 -0.507147 -0.506753 -0.582016 -0.507147 -0.583099 -0.582016 -0.661504 -0.583099 -0.663246 -0.661504 -0.7465 -0.663246 -0.748545 -0.7465 -0.836156 -0.748545 -0.837806 -0.836156 -0.928891 -0.837806 -0.929403 -0.928891 -1.02329 -0.929403 -1.02222 -1.02329 -1.11819 -1.02222 -1.11561 -1.11819 -1.21217 -1.11561 -1.20874 -1.21217 -1.3029 -1.20874 -1.29973 -1.3029 -1.38717 -1.29973 -1.38521 -1.38717 -1.46272 -1.38521 -1.46211 -1.46272 -1.53183 -1.46211 -1.53218 -1.53183 -1.60195 -1.53218 -1.60331 -1.60195 -1.67976 -1.60331 -1.68246 -1.67976 -1.7663 -1.68246 -1.76995 -1.7663 -1.85888 -1.76995 -1.86232 -1.85888 -1.95446 -1.86232 -1.95652 -1.95446 -2.05114 -1.95652 -2.05114 2.05114 1.95652 2.05114 1.95917 1.95652 1.86232 1.95917 1.86685 1.86232 1.76995 1.86685 1.77492 1.76995 1.68246 1.77492 1.6863 1.68246 1.60331 1.6863 1.60529 1.60331 1.53218 1.60529 1.53261 1.53218 1.46211 1.53261 1.46106 1.46211 1.38521 1.46106 1.38228 1.38521 1.29973 1.38228 1.29534 1.29973 1.20874 1.29534 1.20425 1.20874 1.11561 1.20425 1.11241 1.11561 1.02222 1.11241 1.02106 1.02222 0.929403 1.02106 0.93031 0.929403 0.837806 0.93031 0.840199 0.837806 0.748545 0.840199 0.751468 0.748545 0.663246 0.751468 0.665744 0.663246 0.583099 0.665744 0.584632 0.583099 0.507147 0.584632 0.507622 0.507147 0.43176 0.507622 0.431164 0.43176 0.352969 0.431164 0.351297 0.352969 0.26921 0.351297 0.266824 0.26921 0.181377 0.266824 0.17906 0.181377 0.091176 0.17906 0.0897636 0.091176 0 0.0897636 0 0 -0.091176 0 -0.0897636 -0.091176 -0.181377 -0.0897636 -0.17906 -0.181377 -0.26921 -0.17906 -0.266824 -0.26921 -0.352969 -0.266824 -0.351297 -0.352969 -0.43176 -0.351297 -0.431164 -0.43176 -0.507147 -0.431164 -0.507622 -0.507147 -0.583099 -0.507622 -0.584632 -0.583099 -0.663246 -0.584632 -0.665744 -0.663246 -0.748545 -0.665744 -0.751468 -0.748545 -0.837806 -0.751468 -0.840199 -0.837806 -0.929403 -0.840199 -0.93031 -0.929403 -1.02222 -0.93031 -1.02106 -1.02222 -1.11561 -1.02106 -1.11241 -1.11561 -1.20874 -1.11241 -1.20425 -1.20874 -1.29973 -1.20425 -1.29534 -1.29973 -1.38521 -1.29534 -1.38228 -1.38521 -1.46211 -1.38228 -1.46106 -1.46211 -1.53218 -1.46106 -1.53261 -1.53218 -1.60331 -1.53261 -1.60529 -1.60331 -1.68246 -1.60529 -1.6863 -1.68246 -1.76995 -1.6863 -1.77492 -1.76995 -1.86232 -1.77492 -1.86685 -1.86232 -1.95652 -1.86685 -1.95917 -1.95652 -2.05114 -1.95917 -2.05114 2.05114 1.95917 2.05114 1.96249 1.95917 1.86685 1.96249 1.87268 1.86685 1.77492 1.87268 1.78158 1.77492 1.6863 1.78158 1.69169 1.6863 1.60529 1.69169 1.60816 1.60529 1.53261 1.60816 1.53315 1.53261 1.46106 1.53315 1.45937 1.46106 1.38228 1.45937 1.37799 1.38228 1.29534 1.37799 1.28935 1.29534 1.20425 1.28935 1.1985 1.20425 1.11241 1.1985 1.10855 1.11241 1.02106 1.10855 1.01987 1.02106 0.93031 1.01987 0.93173 0.93031 0.840199 0.93173 0.843531 0.840199 0.751468 0.843531 0.75553 0.751468 0.665744 0.75553 0.669262 0.665744 0.584632 0.669262 0.586782 0.584632 0.507622 0.586782 0.508195 0.507622 0.431164 0.508195 0.430146 0.431164 0.351297 0.430146 0.348778 0.351297 0.266824 0.348778 0.263426 0.266824 0.17906 0.263426 0.175886 0.17906 0.0897636 0.175886 0.0878756 0.0897636 0 0.0878756 0 0 -0.0897636 0 -0.0878756 -0.0897636 -0.17906 -0.0878756 -0.175886 -0.17906 -0.266824 -0.175886 -0.263426 -0.266824 -0.351297 -0.263426 -0.348778 -0.351297 -0.431164 -0.348778 -0.430146 -0.431164 -0.507622 -0.430146 -0.508195 -0.507622 -0.584632 -0.508195 -0.586782 -0.584632 -0.665744 -0.586782 -0.669262 -0.665744 -0.751468 -0.669262 -0.75553 -0.751468 -0.840199 -0.75553 -0.843531 -0.840199 -0.93031 -0.843531 -0.93173 -0.93031 -1.02106 -0.93173 -1.01987 -1.02106 -1.11241 -1.01987 -1.10855 -1.11241 -1.20425 -1.10855 -1.1985 -1.20425 -1.29534 -1.1985 -1.28935 -1.29534 -1.38228 -1.28935 -1.37799 -1.38228 -1.46106 -1.37799 -1.45937 -1.46106 -1.53261 -1.45937 -1.53315 -1.53261 -1.60529 -1.53315 -1.60816 -1.60529 -1.6863 -1.60816 -1.69169 -1.6863 -1.77492 -1.69169 -1.78158 -1.77492 -1.86685 -1.78158 -1.87268 -1.86685 -1.95917 -1.87268 -1.96249 -1.95917 -2.05114 -1.96249 -2.05114 2.05114 1.96249 2.05114 1.96653 1.96249 1.87268 1.96653 1.87999 1.87268 1.78158 1.87999 1.79035 1.78158 1.69169 1.79035 1.69919 1.69169 1.60816 1.69919 1.6123 1.60816 1.53315 1.6123 1.53383 1.53315 1.45937 1.53383 1.45669 1.45937 1.37799 1.45669 1.3718 1.37799 1.28935 1.3718 1.28132 1.28935 1.1985 1.28132 1.19127 1.1985 1.10855 1.19127 1.10399 1.10855 1.01987 1.10399 1.01869 1.01987 0.93173 1.01869 0.93378 0.93173 0.843531 0.93378 0.848006 0.843531 0.75553 0.848006 0.761039 0.75553 0.669262 0.761039 0.674139 0.669262 0.586782 0.674139 0.589779 0.586782 0.508195 0.589779 0.508888 0.508195 0.430146 0.508888 0.42851 0.430146 0.348778 0.42851 0.345091 0.348778 0.263426 0.345091 0.25871 0.263426 0.175886 0.25871 0.171658 0.175886 0.0878756 0.171658 0.0854255 0.0878756 0 0.0854255 0 0 -0.0878756 0 -0.0854255 -0.0878756 -0.175886 -0.0854255 -0.171658 -0.175886 -0.263426 -0.171658 -0.25871 -0.263426 -0.348778 -0.25871 -0.345091 -0.348778 -0.430146 -0.345091 -0.42851 -0.430146 -0.508195 -0.42851 -0.508888 -0.508195 -0.586782 -0.508888 -0.589779 -0.586782 -0.669262 -0.589779 -0.674139 -0.669262 -0.75553 -0.674139 -0.761039 -0.75553 -0.843531 -0.761039 -0.848006 -0.843531 -0.93173 -0.848006 -0.93378 -0.93173 -1.01987 -0.93378 -1.01869 -1.01987 -1.10855 -1.01869 -1.10399 -1.10855 -1.1985 -1.10399 -1.19127 -1.1985 -1.28935 -1.19127 -1.28132 -1.28935 -1.37799 -1.28132 -1.3718 -1.37799 -1.45937 -1.3718 -1.45669 -1.45937 -1.53315 -1.45669 -1.53383 -1.53315 -1.60816 -1.53383 -1.6123 -1.60816 -1.69169 -1.6123 -1.69919 -1.69169 -1.78158 -1.69919 -1.79035 -1.78158 -1.87268 -1.79035 -1.87999 -1.87268 -1.96249 -1.87999 -1.96653 -1.96249 -2.05114 -1.96653 -2.05114 2.05114 1.96653 2.05114 1.97128 1.96653 1.87999 1.97128 1.88889 1.87999 1.79035 1.88889 1.80166 1.79035 1.69919 1.80166 1.70956 1.69919 1.6123 1.70956 1.61834 1.6123 1.53383 1.61834 1.53471 1.53383 1.45669 1.53471 1.45251 1.45669 1.3718 1.45251 1.36294 1.3718 1.28132 1.36294 1.27073 1.28132 1.19127 1.27073 1.18243 1.19127 1.10399 1.18243 1.09876 1.10399 1.01869 1.09876 1.01759 1.01869 0.93378 1.01759 0.936567 0.93378 0.848006 0.936567 0.853825 0.848006 0.761039 0.853825 0.768345 0.761039 0.674139 0.768345 0.680819 0.674139 0.589779 0.680819 0.593956 0.589779 0.508888 0.593956 0.509731 0.508888 0.42851 0.509731 0.425974 0.42851 0.345091 0.425974 0.339798 0.345091 0.25871 0.339798 0.252312 0.25871 0.171658 0.252312 0.166178 0.171658 0.0854255 0.166178 0.0823385 0.0854255 0 0.0823385 0 0 -0.0854255 0 -0.0823385 -0.0854255 -0.171658 -0.0823385 -0.166178 -0.171658 -0.25871 -0.166178 -0.252312 -0.25871 -0.345091 -0.252312 -0.339798 -0.345091 -0.42851 -0.339798 -0.425974 -0.42851 -0.508888 -0.425974 -0.509731 -0.508888 -0.589779 -0.509731 -0.593956 -0.589779 -0.674139 -0.593956 -0.680819 -0.674139 -0.761039 -0.680819 -0.768345 -0.761039 -0.848006 -0.768345 -0.853825 -0.848006 -0.93378 -0.853825 -0.936567 -0.93378 -1.01869 -0.936567 -1.01759 -1.01869 -1.10399 -1.01759 -1.09876 -1.10399 -1.19127 -1.09876 -1.18243 -1.19127 -1.28132 -1.18243 -1.27073 -1.28132 -1.3718 -1.27073 -1.36294 -1.3718 -1.45669 -1.36294 -1.45251 -1.45669 -1.53383 -1.45251 -1.53471 -1.53383 -1.6123 -1.53471 -1.61834 -1.6123 -1.69919 -1.61834 -1.70956 -1.69919 -1.79035 -1.70956 -1.80166 -1.79035 -1.87999 -1.80166 -1.88889 -1.87999 -1.96653 -1.88889 -1.97128 -1.96653 -2.05114 -1.97128 -2.05114 2.05114 1.97128 2.05114 1.97673 1.97128 1.88889 1.97673 1.89939 1.88889 1.80166 1.89939 1.81586 1.80166 1.70956 1.81586 1.7238 1.70956 1.61834 1.7238 1.62727 1.61834 1.53471 1.62727 1.53591 1.53471 1.45251 1.53591 1.44595 1.45251 1.36294 1.44595 1.35031 1.36294 1.27073 1.35031 1.25711 1.27073 1.18243 1.25711 1.17194 1.18243 1.09876 1.17194 1.09292 1.09876 1.01759 1.09292 1.01664 1.01759 0.936567 1.01664 0.940176 0.936567 0.853825 0.940176 0.861152 0.853825 0.768345 0.861152 0.777818 0.768345 0.680819 0.777818 0.689892 0.680819 0.593956 0.689892 0.599814 0.593956 0.509731 0.599814 0.510776 0.509731 0.425974 0.510776 0.422097 0.425974 0.339798 0.422097 0.332295 0.339798 0.252312 0.332295 0.243818 0.252312 0.166178 0.243818 0.159269 0.166178 0.0823385 0.159269 0.0785628 0.0823385 0 0.0785628 0 0 -0.0823385 0 -0.0785628 -0.0823385 -0.166178 -0.0785628 -0.159269 -0.166178 -0.252312 -0.159269 -0.243818 -0.252312 -0.339798 -0.243818 -0.332295 -0.339798 -0.425974 -0.332295 -0.422097 -0.425974 -0.509731 -0.422097 -0.510776 -0.509731 -0.593956 -0.510776 -0.599814 -0.593956 -0.680819 -0.599814 -0.689892 -0.680819 -0.768345 -0.689892 -0.777818 -0.768345 -0.853825 -0.777818 -0.861152 -0.853825 -0.936567 -0.861152 -0.940176 -0.936567 -1.01759 -0.940176 -1.01664 -1.01759 -1.09876 -1.01664 -1.09292 -1.09876 -1.18243 -1.09292 -1.17194 -1.18243 -1.27073 -1.17194 -1.25711 -1.27073 -1.36294 -1.25711 -1.35031 -1.36294 -1.4525