# vtk DataFile Version 3.0
#This file was generated by the deal.II library on 2017/9/27 at 13:17:41
ASCII
DATASET UNSTRUCTURED_GRID

POINTS 2688 double
-5.63207 0 0
-5.3974 0 0
-5.63207 0.0714286 0
-5.3974 0.0714286 0
-5.3974 0 0
-5.16273 0 0
-5.3974 0.0714286 0
-5.16273 0.0714286 0
-5.16273 0 0
-4.92806 0 0
-5.16273 0.0714286 0
-4.92806 0.0714286 0
-4.92806 0 0
-4.69339 0 0
-4.92806 0.0714286 0
-4.69339 0.0714286 0
-4.69339 0 0
-4.45872 0 0
-4.69339 0.0714286 0
-4.45872 0.0714286 0
-4.45872 0 0
-4.22405 0 0
-4.45872 0.0714286 0
-4.22405 0.0714286 0
-4.22405 0 0
-3.98938 0 0
-4.22405 0.0714286 0
-3.98938 0.0714286 0
-3.98938 0 0
-3.75472 0 0
-3.98938 0.0714286 0
-3.75472 0.0714286 0
-3.75472 0 0
-3.52005 0 0
-3.75472 0.0714286 0
-3.52005 0.0714286 0
-3.52005 0 0
-3.28538 0 0
-3.52005 0.0714286 0
-3.28538 0.0714286 0
-3.28538 0 0
-3.05071 0 0
-3.28538 0.0714286 0
-3.05071 0.0714286 0
-3.05071 0 0
-2.81604 0 0
-3.05071 0.0714286 0
-2.81604 0.0714286 0
-2.81604 0 0
-2.58137 0 0
-2.81604 0.0714286 0
-2.58137 0.0714286 0
-2.58137 0 0
-2.3467 0 0
-2.58137 0.0714286 0
-2.3467 0.0714286 0
-2.3467 0 0
-2.11203 0 0
-2.3467 0.0714286 0
-2.11203 0.0714286 0
-2.11203 0 0
-1.87736 0 0
-2.11203 0.0714286 0
-1.87736 0.0714286 0
-1.87736 0 0
-1.64269 0 0
-1.87736 0.0714286 0
-1.64269 0.0714286 0
-1.64269 0 0
-1.40802 0 0
-1.64269 0.0714286 0
-1.40802 0.0714286 0
-1.40802 0 0
-1.17335 0 0
-1.40802 0.0714286 0
-1.17335 0.0714286 0
-1.17335 0 0
-0.938679 0 0
-1.17335 0.0714286 0
-0.938679 0.0714286 0
-0.938679 0 0
-0.704009 0 0
-0.938679 0.0714286 0
-0.704009 0.0714286 0
-0.704009 0 0
-0.469339 0 0
-0.704009 0.0714286 0
-0.469339 0.0714286 0
-0.469339 0 0
-0.23467 0 0
-0.469339 0.0714286 0
-0.23467 0.0714286 0
-0.23467 0 0
0 0 0
-0.23467 0.0714286 0
0 0.0714286 0
0 0 0
0.23467 0 0
0 0.0714286 0
0.23467 0.0714286 0
0.23467 0 0
0.469339 0 0
0.23467 0.0714286 0
0.469339 0.0714286 0
0.469339 0 0
0.704009 0 0
0.469339 0.0714286 0
0.704009 0.0714286 0
0.704009 0 0
0.938679 0 0
0.704009 0.0714286 0
0.938679 0.0714286 0
0.938679 0 0
1.17335 0 0
0.938679 0.0714286 0
1.17335 0.0714286 0
1.17335 0 0
1.40802 0 0
1.17335 0.0714286 0
1.40802 0.0714286 0
1.40802 0 0
1.64269 0 0
1.40802 0.0714286 0
1.64269 0.0714286 0
1.64269 0 0
1.87736 0 0
1.64269 0.0714286 0
1.87736 0.0714286 0
1.87736 0 0
2.11203 0 0
1.87736 0.0714286 0
2.11203 0.0714286 0
2.11203 0 0
2.3467 0 0
2.11203 0.0714286 0
2.3467 0.0714286 0
2.3467 0 0
2.58137 0 0
2.3467 0.0714286 0
2.58137 0.0714286 0
2.58137 0 0
2.81604 0 0
2.58137 0.0714286 0
2.81604 0.0714286 0
2.81604 0 0
3.05071 0 0
2.81604 0.0714286 0
3.05071 0.0714286 0
3.05071 0 0
3.28538 0 0
3.05071 0.0714286 0
3.28538 0.0714286 0
3.28538 0 0
3.52005 0 0
3.28538 0.0714286 0
3.52005 0.0714286 0
3.52005 0 0
3.75472 0 0
3.52005 0.0714286 0
3.75472 0.0714286 0
3.75472 0 0
3.98938 0 0
3.75472 0.0714286 0
3.98938 0.0714286 0
3.98938 0 0
4.22405 0 0
3.98938 0.0714286 0
4.22405 0.0714286 0
4.22405 0 0
4.45872 0 0
4.22405 0.0714286 0
4.45872 0.0714286 0
4.45872 0 0
4.69339 0 0
4.45872 0.0714286 0
4.69339 0.0714286 0
4.69339 0 0
4.92806 0 0
4.69339 0.0714286 0
4.92806 0.0714286 0
4.92806 0 0
5.16273 0 0
4.92806 0.0714286 0
5.16273 0.0714286 0
5.16273 0 0
5.3974 0 0
5.16273 0.0714286 0
5.3974 0.0714286 0
5.3974 0 0
5.63207 0 0
5.3974 0.0714286 0
5.63207 0.0714286 0
-5.63207 0.0714286 0
-5.3974 0.0714286 0
-5.63207 0.142857 0
-5.3974 0.142857 0
-5.3974 0.0714286 0
-5.16273 0.0714286 0
-5.3974 0.142857 0
-5.16273 0.142857 0
-5.16273 0.0714286 0
-4.92806 0.0714286 0
-5.16273 0.142857 0
-4.92806 0.142857 0
-4.92806 0.0714286 0
-4.69339 0.0714286 0
-4.92806 0.142857 0
-4.69339 0.142857 0
-4.69339 0.0714286 0
-4.45872 0.0714286 0
-4.69339 0.142857 0
-4.45872 0.142857 0
-4.45872 0.0714286 0
-4.22405 0.0714286 0
-4.45872 0.142857 0
-4.22405 0.142857 0
-4.22405 0.0714286 0
-3.98938 0.0714286 0
-4.22405 0.142857 0
-3.98938 0.142857 0
-3.98938 0.0714286 0
-3.75472 0.0714286 0
-3.98938 0.142857 0
-3.75472 0.142857 0
-3.75472 0.0714286 0
-3.52005 0.0714286 0
-3.75472 0.142857 0
-3.52005 0.142857 0
-3.52005 0.0714286 0
-3.28538 0.0714286 0
-3.52005 0.142857 0
-3.28538 0.142857 0
-3.28538 0.0714286 0
-3.05071 0.0714286 0
-3.28538 0.142857 0
-3.05071 0.142857 0
-3.05071 0.0714286 0
-2.81604 0.0714286 0
-3.05071 0.142857 0
-2.81604 0.142857 0
-2.81604 0.0714286 0
-2.58137 0.0714286 0
-2.81604 0.142857 0
-2.58137 0.142857 0
-2.58137 0.0714286 0
-2.3467 0.0714286 0
-2.58137 0.142857 0
-2.3467 0.142857 0
-2.3467 0.0714286 0
-2.11203 0.0714286 0
-2.3467 0.142857 0
-2.11203 0.142857 0
-2.11203 0.0714286 0
-1.87736 0.0714286 0
-2.11203 0.142857 0
-1.87736 0.142857 0
-1.87736 0.0714286 0
-1.64269 0.0714286 0
-1.87736 0.142857 0
-1.64269 0.142857 0
-1.64269 0.0714286 0
-1.40802 0.0714286 0
-1.64269 0.142857 0
-1.40802 0.142857 0
-1.40802 0.0714286 0
-1.17335 0.0714286 0
-1.40802 0.142857 0
-1.17335 0.142857 0
-1.17335 0.0714286 0
-0.938679 0.0714286 0
-1.17335 0.142857 0
-0.938679 0.142857 0
-0.938679 0.0714286 0
-0.704009 0.0714286 0
-0.938679 0.142857 0
-0.704009 0.142857 0
-0.704009 0.0714286 0
-0.469339 0.0714286 0
-0.704009 0.142857 0
-0.469339 0.142857 0
-0.469339 0.0714286 0
-0.23467 0.0714286 0
-0.469339 0.142857 0
-0.23467 0.142857 0
-0.23467 0.0714286 0
0 0.0714286 0
-0.23467 0.142857 0
0 0.142857 0
0 0.0714286 0
0.23467 0.0714286 0
0 0.142857 0
0.23467 0.142857 0
0.23467 0.0714286 0
0.469339 0.0714286 0
0.23467 0.142857 0
0.469339 0.142857 0
0.469339 0.0714286 0
0.704009 0.0714286 0
0.469339 0.142857 0
0.704009 0.142857 0
0.704009 0.0714286 0
0.938679 0.0714286 0
0.704009 0.142857 0
0.938679 0.142857 0
0.938679 0.0714286 0
1.17335 0.0714286 0
0.938679 0.142857 0
1.17335 0.142857 0
1.17335 0.0714286 0
1.40802 0.0714286 0
1.17335 0.142857 0
1.40802 0.142857 0
1.40802 0.0714286 0
1.64269 0.0714286 0
1.40802 0.142857 0
1.64269 0.142857 0
1.64269 0.0714286 0
1.87736 0.0714286 0
1.64269 0.142857 0
1.87736 0.142857 0
1.87736 0.0714286 0
2.11203 0.0714286 0
1.87736 0.142857 0
2.11203 0.142857 0
2.11203 0.0714286 0
2.3467 0.0714286 0
2.11203 0.142857 0
2.3467 0.142857 0
2.3467 0.0714286 0
2.58137 0.0714286 0
2.3467 0.142857 0
2.58137 0.142857 0
2.58137 0.0714286 0
2.81604 0.0714286 0
2.58137 0.142857 0
2.81604 0.142857 0
2.81604 0.0714286 0
3.05071 0.0714286 0
2.81604 0.142857 0
3.05071 0.142857 0
3.05071 0.0714286 0
3.28538 0.0714286 0
3.05071 0.142857 0
3.28538 0.142857 0
3.28538 0.0714286 0
3.52005 0.0714286 0
3.28538 0.142857 0
3.52005 0.142857 0
3.52005 0.0714286 0
3.75472 0.0714286 0
3.52005 0.142857 0
3.75472 0.142857 0
3.75472 0.0714286 0
3.98938 0.0714286 0
3.75472 0.142857 0
3.98938 0.142857 0
3.98938 0.0714286 0
4.22405 0.0714286 0
3.98938 0.142857 0
4.22405 0.142857 0
4.22405 0.0714286 0
4.45872 0.0714286 0
4.22405 0.142857 0
4.45872 0.142857 0
4.45872 0.0714286 0
4.69339 0.0714286 0
4.45872 0.142857 0
4.69339 0.142857 0
4.69339 0.0714286 0
4.92806 0.0714286 0
4.69339 0.142857 0
4.92806 0.142857 0
4.92806 0.0714286 0
5.16273 0.0714286 0
4.92806 0.142857 0
5.16273 0.142857 0
5.16273 0.0714286 0
5.3974 0.0714286 0
5.16273 0.142857 0
5.3974 0.142857 0
5.3974 0.0714286 0
5.63207 0.0714286 0
5.3974 0.142857 0
5.63207 0.142857 0
-5.63207 0.142857 0
-5.3974 0.142857 0
-5.63207 0.214286 0
-5.3974 0.214286 0
-5.3974 0.142857 0
-5.16273 0.142857 0
-5.3974 0.214286 0
-5.16273 0.214286 0
-5.16273 0.142857 0
-4.92806 0.142857 0
-5.16273 0.214286 0
-4.92806 0.214286 0
-4.92806 0.142857 0
-4.69339 0.142857 0
-4.92806 0.214286 0
-4.69339 0.214286 0
-4.69339 0.142857 0
-4.45872 0.142857 0
-4.69339 0.214286 0
-4.45872 0.214286 0
-4.45872 0.142857 0
-4.22405 0.142857 0
-4.45872 0.214286 0
-4.22405 0.214286 0
-4.22405 0.142857 0
-3.98938 0.142857 0
-4.22405 0.214286 0
-3.98938 0.214286 0
-3.98938 0.142857 0
-3.75472 0.142857 0
-3.98938 0.214286 0
-3.75472 0.214286 0
-3.75472 0.142857 0
-3.52005 0.142857 0
-3.75472 0.214286 0
-3.52005 0.214286 0
-3.52005 0.142857 0
-3.28538 0.142857 0
-3.52005 0.214286 0
-3.28538 0.214286 0
-3.28538 0.142857 0
-3.05071 0.142857 0
-3.28538 0.214286 0
-3.05071 0.214286 0
-3.05071 0.142857 0
-2.81604 0.142857 0
-3.05071 0.214286 0
-2.81604 0.214286 0
-2.81604 0.142857 0
-2.58137 0.142857 0
-2.81604 0.214286 0
-2.58137 0.214286 0
-2.58137 0.142857 0
-2.3467 0.142857 0
-2.58137 0.214286 0
-2.3467 0.214286 0
-2.3467 0.142857 0
-2.11203 0.142857 0
-2.3467 0.214286 0
-2.11203 0.214286 0
-2.11203 0.142857 0
-1.87736 0.142857 0
-2.11203 0.214286 0
-1.87736 0.214286 0
-1.87736 0.142857 0
-1.64269 0.142857 0
-1.87736 0.214286 0
-1.64269 0.214286 0
-1.64269 0.142857 0
-1.40802 0.142857 0
-1.64269 0.214286 0
-1.40802 0.214286 0
-1.40802 0.142857 0
-1.17335 0.142857 0
-1.40802 0.214286 0
-1.17335 0.214286 0
-1.17335 0.142857 0
-0.938679 0.142857 0
-1.17335 0.214286 0
-0.938679 0.214286 0
-0.938679 0.142857 0
-0.704009 0.142857 0
-0.938679 0.214286 0
-0.704009 0.214286 0
-0.704009 0.142857 0
-0.469339 0.142857 0
-0.704009 0.214286 0
-0.469339 0.214286 0
-0.469339 0.142857 0
-0.23467 0.142857 0
-0.469339 0.214286 0
-0.23467 0.214286 0
-0.23467 0.142857 0
0 0.142857 0
-0.23467 0.214286 0
0 0.214286 0
0 0.142857 0
0.23467 0.142857 0
0 0.214286 0
0.23467 0.214286 0
0.23467 0.142857 0
0.469339 0.142857 0
0.23467 0.214286 0
0.469339 0.214286 0
0.469339 0.142857 0
0.704009 0.142857 0
0.469339 0.214286 0
0.704009 0.214286 0
0.704009 0.142857 0
0.938679 0.142857 0
0.704009 0.214286 0
0.938679 0.214286 0
0.938679 0.142857 0
1.17335 0.142857 0
0.938679 0.214286 0
1.17335 0.214286 0
1.17335 0.142857 0
1.40802 0.142857 0
1.17335 0.214286 0
1.40802 0.214286 0
1.40802 0.142857 0
1.64269 0.142857 0
1.40802 0.214286 0
1.64269 0.214286 0
1.64269 0.142857 0
1.87736 0.142857 0
1.64269 0.214286 0
1.87736 0.214286 0
1.87736 0.142857 0
2.11203 0.142857 0
1.87736 0.214286 0
2.11203 0.214286 0
2.11203 0.142857 0
2.3467 0.142857 0
2.11203 0.214286 0
2.3467 0.214286 0
2.3467 0.142857 0
2.58137 0.142857 0
2.3467 0.214286 0
2.58137 0.214286 0
2.58137 0.142857 0
2.81604 0.142857 0
2.58137 0.214286 0
2.81604 0.214286 0
2.81604 0.142857 0
3.05071 0.142857 0
2.81604 0.214286 0
[...]
POINT_DATA 2688
SCALARS x1_displacement double 1
LOOKUP_TABLE default
2.04714 1.94435 2.04714 1.94446 1.94435 1.84447 1.94446 1.84465 1.84447 1.75059 1.84465 1.75076 1.75059 1.66558 1.75076 1.66571 1.66558 1.59085 1.66571 1.59092 1.59085 1.52411 1.59092 1.52415 1.52411 1.45884 1.52415 1.45885 1.45884 1.3878 1.45885 1.38774 1.3878 1.30736 1.38774 1.30721 1.30736 1.21814 1.30721 1.21794 1.21814 1.12293 1.21794 1.12271 1.12293 1.0249 1.12271 1.02474 1.0249 0.926965 1.02474 0.926875 0.926965 0.83158 0.926875 0.831562 0.83158 0.74073 0.831562 0.74076 0.74073 0.65567 0.74076 0.655721 0.65567 0.576411 0.655721 0.576465 0.576411 0.501243 0.576465 0.501292 0.501243 0.426987 0.501292 0.427023 0.426987 0.35026 0.427023 0.350274 0.35026 0.268916 0.350274 0.268907 0.268916 0.182597 0.268907 0.182575 0.182597 0.092353 0.182575 0.0923351 0.092353 0 0.0923351 0 0 -0.092353 0 -0.0923351 -0.092353 -0.182597 -0.0923351 -0.182575 -0.182597 -0.268916 -0.182575 -0.268907 -0.268916 -0.35026 -0.268907 -0.350274 -0.35026 -0.426987 -0.350274 -0.427023 -0.426987 -0.501243 -0.427023 -0.501292 -0.501243 -0.576411 -0.501292 -0.576465 -0.576411 -0.65567 -0.576465 -0.655721 -0.65567 -0.74073 -0.655721 -0.74076 -0.74073 -0.83158 -0.74076 -0.831562 -0.83158 -0.926965 -0.831562 -0.926875 -0.926965 -1.0249 -0.926875 -1.02474 -1.0249 -1.12293 -1.02474 -1.12271 -1.12293 -1.21814 -1.12271 -1.21794 -1.21814 -1.30736 -1.21794 -1.30721 -1.30736 -1.3878 -1.30721 -1.38774 -1.3878 -1.45884 -1.38774 -1.45885 -1.45884 -1.52411 -1.45885 -1.52415 -1.52411 -1.59085 -1.52415 -1.59092 -1.59085 -1.66558 -1.59092 -1.66571 -1.66558 -1.75059 -1.66571 -1.75076 -1.75059 -1.84447 -1.75076 -1.84465 -1.84447 -1.94435 -1.84465 -1.94446 -1.94435 -2.04714 -1.94446 -2.04714 2.04714 1.94446 2.04714 1.94483 1.94446 1.84465 1.94483 1.84524 1.84465 1.75076 1.84524 1.75135 1.75076 1.66571 1.75135 1.66612 1.66571 1.59092 1.66612 1.59115 1.59092 1.52415 1.59115 1.52426 1.52415 1.45885 1.52426 1.45886 1.45885 1.38774 1.45886 1.38753 1.38774 1.30721 1.38753 1.30674 1.30721 1.21794 1.30674 1.21728 1.21794 1.12271 1.21728 1.12206 1.12271 1.02474 1.12206 1.02426 1.02474 0.926875 1.02426 0.926651 0.926875 0.831562 0.926651 0.831565 0.831562 0.74076 0.831565 0.740899 0.74076 0.655721 0.740899 0.655904 0.655721 0.576465 0.655904 0.576638 0.576465 0.501292 0.576638 0.501433 0.501292 0.427023 0.501433 0.427115 0.427023 0.350274 0.427115 0.350291 0.350274 0.268907 0.350291 0.268846 0.268907 0.182575 0.268846 0.182476 0.182575 0.0923351 0.182476 0.0922619 0.0923351 0 0.0922619 0 0 -0.0923351 0 -0.0922619 -0.0923351 -0.182575 -0.0922619 -0.182476 -0.182575 -0.268907 -0.182476 -0.268846 -0.268907 -0.350274 -0.268846 -0.350291 -0.350274 -0.427023 -0.350291 -0.427115 -0.427023 -0.501292 -0.427115 -0.501433 -0.501292 -0.576465 -0.501433 -0.576638 -0.576465 -0.655721 -0.576638 -0.655904 -0.655721 -0.74076 -0.655904 -0.740899 -0.74076 -0.831562 -0.740899 -0.831565 -0.831562 -0.926875 -0.831565 -0.926651 -0.926875 -1.02474 -0.926651 -1.02426 -1.02474 -1.12271 -1.02426 -1.12206 -1.12271 -1.21794 -1.12206 -1.21728 -1.21794 -1.30721 -1.21728 -1.30674 -1.30721 -1.38774 -1.30674 -1.38753 -1.38774 -1.45885 -1.38753 -1.45886 -1.45885 -1.52415 -1.45886 -1.52426 -1.52415 -1.59092 -1.52426 -1.59115 -1.59092 -1.66571 -1.59115 -1.66612 -1.66571 -1.75076 -1.66612 -1.75135 -1.75076 -1.84465 -1.75135 -1.84524 -1.84465 -1.94446 -1.84524 -1.94483 -1.94446 -2.04714 -1.94483 -2.04714 2.04714 1.94483 2.04714 1.94548 1.94483 1.84524 1.94548 1.84627 1.84524 1.75135 1.84627 1.75237 1.75135 1.66612 1.75237 1.66683 1.66612 1.59115 1.66683 1.59151 1.59115 1.52426 1.59151 1.52444 1.52426 1.45886 1.52444 1.45887 1.45886 1.38753 1.45887 1.38718 1.38753 1.30674 1.38718 1.30592 1.30674 1.21728 1.30592 1.21616 1.21728 1.12206 1.21616 1.12098 1.12206 1.02426 1.12098 1.0235 1.02426 0.926651 1.0235 0.926337 0.926651 0.831565 0.926337 0.831629 0.831565 0.740899 0.831629 0.741175 0.740899 0.655904 0.741175 0.656231 0.655904 0.576638 0.656231 0.576927 0.576638 0.501433 0.576927 0.501659 0.501433 0.427115 0.501659 0.427249 0.427115 0.350291 0.427249 0.350293 0.350291 0.268846 0.350293 0.268712 0.268846 0.182476 0.268712 0.18228 0.182476 0.0922619 0.18228 0.0921207 0.0922619 0 0.0921207 0 0 -0.0922619 0 -0.0921207 -0.0922619 -0.182476 -0.0921207 -0.18228 -0.182476 -0.268846 -0.18228 -0.268712 -0.268846 -0.350291 -0.268712 -0.350293 -0.350291 -0.427115 -0.350293 -0.427249 -0.427115 -0.501433 -0.427249 -0.501659 -0.501433 -0.576638 -0.501659 -0.576927 -0.576638 -0.655904 -0.576927 -0.656231 -0.655904 -0.740899 -0.656231 -0.741175 -0.740899 -0.831565 -0.741175 -0.831629 -0.831565 -0.926651 -0.831629 -0.926337 -0.926651 -1.02426 -0.926337 -1.0235 -1.02426 -1.12206 -1.0235 -1.12098 -1.12206 -1.21728 -1.12098 -1.21616 -1.21728 -1.30674 -1.21616 -1.30592 -1.30674 -1.38753 -1.30592 -1.38718 -1.38753 -1.45886 -1.38718 -1.45887 -1.45886 -1.52426 -1.45887 -1.52444 -1.52426 -1.59115 -1.52444 -1.59151 -1.59115 -1.66612 -1.59151 -1.66683 -1.66612 -1.75135 -1.66683 -1.75237 -1.75135 -1.84524 -1.75237 -1.84627 -1.84524 -1.94483 -1.84627 -1.94548 -1.94483 -2.04714 -1.94548 -2.04714 2.04714 1.94548 2.04714 1.94644 1.94548 1.84627 1.94644 1.84782 1.84627 1.75237 1.84782 1.75391 1.75237 1.66683 1.75391 1.66789 1.66683 1.59151 1.66789 1.59204 1.59151 1.52444 1.59204 1.52468 1.52444 1.45887 1.52468 1.45886 1.45887 1.38718 1.45886 1.38663 1.38718 1.30592 1.38663 1.30469 1.30592 1.21616 1.30469 1.21453 1.21616 1.12098 1.21453 1.11946 1.12098 1.0235 1.11946 1.0225 1.0235 0.926337 1.0225 0.925992 0.926337 0.831629 0.925992 0.831827 0.831629 0.741175 0.831827 0.741657 0.741175 0.656231 0.741657 0.656751 0.656231 0.576927 0.656751 0.577357 0.576927 0.501659 0.577357 0.501967 0.501659 0.427249 0.501967 0.427403 0.427249 0.350293 0.427403 0.350237 0.350293 0.268712 0.350237 0.268452 0.268712 0.18228 0.268452 0.181938 0.18228 0.0921207 0.181938 0.0918828 0.0921207 0 0.0918828 0 0 -0.0921207 0 -0.0918828 -0.0921207 -0.18228 -0.0918828 -0.181938 -0.18228 -0.268712 -0.181938 -0.268452 -0.268712 -0.350293 -0.268452 -0.350237 -0.350293 -0.427249 -0.350237 -0.427403 -0.427249 -0.501659 -0.427403 -0.501967 -0.501659 -0.576927 -0.501967 -0.577357 -0.576927 -0.656231 -0.577357 -0.656751 -0.656231 -0.741175 -0.656751 -0.741657 -0.741175 -0.831629 -0.741657 -0.831827 -0.831629 -0.926337 -0.831827 -0.925992 -0.926337 -1.0235 -0.925992 -1.0225 -1.0235 -1.12098 -1.0225 -1.11946 -1.12098 -1.21616 -1.11946 -1.21453 -1.21616 -1.30592 -1.21453 -1.30469 -1.30592 -1.38718 -1.30469 -1.38663 -1.38718 -1.45887 -1.38663 -1.45886 -1.45887 -1.52444 -1.45886 -1.52468 -1.52444 -1.59151 -1.52468 -1.59204 -1.59151 -1.66683 -1.59204 -1.66789 -1.66683 -1.75237 -1.66789 -1.75391 -1.75237 -1.84627 -1.75391 -1.84782 -1.84627 -1.94548 -1.84782 -1.94644 -1.94548 -2.04714 -1.94644 -2.04714 2.04714 1.94644 2.04714 1.94779 1.94644 1.84782 1.94779 1.85001 1.84782 1.75391 1.85001 1.75612 1.75391 1.66789 1.75612 1.66945 1.66789 1.59204 1.66945 1.59281 1.59204 1.52468 1.59281 1.52499 1.52468 1.45886 1.52499 1.45876 1.45886 1.38663 1.45876 1.38575 1.38663 1.30469 1.38575 1.30289 1.30469 1.21453 1.30289 1.21228 1.21453 1.11946 1.21228 1.11744 1.11946 1.0225 1.11744 1.02126 1.0225 0.925992 1.02126 0.92569 0.925992 0.831827 0.92569 0.832263 0.831827 0.741657 0.832263 0.742451 0.741657 0.656751 0.742451 0.657548 0.656751 0.577357 0.657548 0.577973 0.577357 0.501967 0.577973 0.50236 0.501967 0.427403 0.50236 0.427539 0.427403 0.350237 0.427539 0.350053 0.350237 0.268452 0.350053 0.267981 0.268452 0.181938 0.267981 0.181376 0.181938 0.0918828 0.181376 0.0915049 0.0918828 0 0.0915049 0 0 -0.0918828 0 -0.0915049 -0.0918828 -0.181938 -0.0915049 -0.181376 -0.181938 -0.268452 -0.181376 -0.267981 -0.268452 -0.350237 -0.267981 -0.350053 -0.350237 -0.427403 -0.350053 -0.427539 -0.427403 -0.501967 -0.427539 -0.50236 -0.501967 -0.577357 -0.50236 -0.577973 -0.577357 -0.656751 -0.577973 -0.657548 -0.656751 -0.741657 -0.657548 -0.742451 -0.741657 -0.831827 -0.742451 -0.832263 -0.831827 -0.925992 -0.832263 -0.92569 -0.925992 -1.0225 -0.92569 -1.02126 -1.0225 -1.11946 -1.02126 -1.11744 -1.11946 -1.21453 -1.11744 -1.21228 -1.21453 -1.30469 -1.21228 -1.30289 -1.30469 -1.38663 -1.30289 -1.38575 -1.38663 -1.45886 -1.38575 -1.45876 -1.45886 -1.52468 -1.45876 -1.52499 -1.52468 -1.59204 -1.52499 -1.59281 -1.59204 -1.66789 -1.59281 -1.66945 -1.66789 -1.75391 -1.66945 -1.75612 -1.75391 -1.84782 -1.75612 -1.85001 -1.84782 -1.94644 -1.85001 -1.94779 -1.94644 -2.04714 -1.94779 -2.04714 2.04714 1.94779 2.04714 1.94961 1.94779 1.85001 1.94961 1.85301 1.85001 1.75612 1.85301 1.75924 1.75612 1.66945 1.75924 1.6717 1.66945 1.59281 1.6717 1.59392 1.59281 1.52499 1.59392 1.52538 1.52499 1.45876 1.52538 1.45852 1.45876 1.38575 1.45852 1.38439 1.38575 1.30289 1.38439 1.30035 1.30289 1.21228 1.30035 1.20925 1.21228 1.11744 1.20925 1.11488 1.11744 1.02126 1.11488 1.01983 1.02126 0.92569 1.01983 0.925523 0.92569 0.832263 0.925523 0.833066 0.832263 0.742451 0.833066 0.743695 0.742451 0.657548 0.743695 0.658736 0.657548 0.577973 0.658736 0.578839 0.577973 0.50236 0.578839 0.502846 0.50236 0.427539 0.502846 0.427607 0.427539 0.350053 0.427607 0.349648 0.350053 0.267981 0.349648 0.267185 0.267981 0.181376 0.267185 0.180494 0.181376 0.0915049 0.180494 0.0909308 0.0915049 0 0.0909308 0 0 -0.0915049 0 -0.0909308 -0.0915049 -0.181376 -0.0909308 -0.180494 -0.181376 -0.267981 -0.180494 -0.267185 -0.267981 -0.350053 -0.267185 -0.349648 -0.350053 -0.427539 -0.349648 -0.427607 -0.427539 -0.50236 -0.427607 -0.502846 -0.50236 -0.577973 -0.502846 -0.578839 -0.577973 -0.657548 -0.578839 -0.658736 -0.657548 -0.742451 -0.658736 -0.743695 -0.742451 -0.832263 -0.743695 -0.833066 -0.832263 -0.92569 -0.833066 -0.925523 -0.92569 -1.02126 -0.925523 -1.01983 -1.02126 -1.11744 -1.01983 -1.11488 -1.11744 -1.21228 -1.11488 -1.20925 -1.21228 -1.30289 -1.20925 -1.30035 -1.30289 -1.38575 -1.30035 -1.38439 -1.38575 -1.45876 -1.38439 -1.45852 -1.45876 -1.52499 -1.45852 -1.52538 -1.52499 -1.59281 -1.52538 -1.59392 -1.59281 -1.66945 -1.59392 -1.6717 -1.66945 -1.75612 -1.6717 -1.75924 -1.75612 -1.85001 -1.75924 -1.85301 -1.85001 -1.94779 -1.85301 -1.94961 -1.94779 -2.04714 -1.94961 -2.04714 2.04714 1.94961 2.04714 1.95199 1.94961 1.85301 1.95199 1.85701 1.85301 1.75924 1.85701 1.76352 1.75924 1.6717 1.76352 1.67489 1.6717 1.59392 1.67489 1.59554 1.59392 1.52538 1.59554 1.52587 1.52538 1.45852 1.52587 1.458 1.45852 1.38439 1.458 1.38231 1.38439 1.30035 1.38231 1.29678 1.30035 1.20925 1.29678 1.20525 1.20925 1.11488 1.20525 1.11171 1.11488 1.01983 1.11171 1.01822 1.01983 0.925523 1.01822 0.925597 0.925523 0.833066 0.925597 0.834391 0.833066 0.743695 0.834391 0.745561 0.743695 0.658736 0.745561 0.660466 0.658736 0.578839 0.660466 0.580047 0.578839 0.502846 0.580047 0.503435 0.502846 0.427607 0.503435 0.427543 0.427607 0.349648 0.427543 0.348896 0.349648 0.267185 0.348896 0.265918 0.267185 0.180494 0.265918 0.17917 0.180494 0.0909308 0.17917 0.0900922 0.0909308 0 0.0900922 0 0 -0.0909308 0 -0.0900922 -0.0909308 -0.180494 -0.0900922 -0.17917 -0.180494 -0.267185 -0.17917 -0.265918 -0.267185 -0.349648 -0.265918 -0.348896 -0.349648 -0.427607 -0.348896 -0.427543 -0.427607 -0.502846 -0.427543 -0.503435 -0.502846 -0.578839 -0.503435 -0.580047 -0.578839 -0.658736 -0.580047 -0.660466 -0.658736 -0.743695 -0.660466 -0.745561 -0.743695 -0.833066 -0.745561 -0.834391 -0.833066 -0.925523 -0.834391 -0.925597 -0.925523 -1.01983 -0.925597 -1.01822 -1.01983 -1.11488 -1.01822 -1.11171 -1.11488 -1.20925 -1.11171 -1.20525 -1.20925 -1.30035 -1.20525 -1.29678 -1.30035 -1.38439 -1.29678 -1.38231 -1.38439 -1.45852 -1.38231 -1.458 -1.45852 -1.52538 -1.458 -1.52587 -1.52538 -1.59392 -1.52587 -1.59554 -1.59392 -1.6717 -1.59554 -1.67489 -1.6717 -1.75924 -1.67489 -1.76352 -1.75924 -1.85301 -1.76352 -1.85701 -1.85301 -1.94961 -1.85701 -1.95199 -1.94961 -2.04714 -1.95199 -2.04714 2.04714 1.95199 2.04714 1.95501 1.95199 1.85701 1.95501 1.86222 1.85701 1.76352 1.86222 1.7693 1.76352 1.67489 1.7693 1.6794 1.67489 1.59554 1.6794 1.59786 1.59554 1.52587 1.59786 1.52648 1.52587 1.458 1.52648 1.45705 1.458 1.38231 1.45705 1.37919 1.38231 1.29678 1.37919 1.29186 1.29678 1.20525 1.29186 1.20009 1.20525 1.11171 1.20009 1.10786 1.11171 1.01822 1.10786 1.0165 1.01822 0.925597 1.0165 0.926034 0.925597 0.834391 0.926034 0.836416 0.834391 0.745561 0.836416 0.74826 0.745561 0.660466 0.74826 0.662928 0.660466 0.580047 0.662928 0.581712 0.580047 0.503435 0.581712 0.504143 0.503435 0.427543 0.504143 0.427259 0.427543 0.348896 0.427259 0.347633 0.348896 0.265918 0.347633 0.263994 0.265918 0.17917 0.263994 0.177254 0.17917 0.0900922 0.177254 0.0889103 0.0900922 0 0.0889103 0 0 -0.0900922 0 -0.0889103 -0.0900922 -0.17917 -0.0889103 -0.177254 -0.17917 -0.265918 -0.177254 -0.263994 -0.265918 -0.348896 -0.263994 -0.347633 -0.348896 -0.427543 -0.347633 -0.427259 -0.427543 -0.503435 -0.427259 -0.504143 -0.503435 -0.580047 -0.504143 -0.581712 -0.580047 -0.660466 -0.581712 -0.662928 -0.660466 -0.745561 -0.662928 -0.74826 -0.745561 -0.834391 -0.74826 -0.836416 -0.834391 -0.925597 -0.836416 -0.926034 -0.925597 -1.01822 -0.926034 -1.0165 -1.01822 -1.11171 -1.0165 -1.10786 -1.11171 -1.20525 -1.10786 -1.20009 -1.20525 -1.29678 -1.20009 -1.29186 -1.29678 -1.38231 -1.29186 -1.37919 -1.38231 -1.458 -1.37919 -1.45705 -1.458 -1.52587 -1.45705 -1.52648 -1.52587 -1.59554 -1.52648 -1.59786 -1.59554 -1.67489 -1.59786 -1.6794 -1.67489 -1.76352 -1.6794 -1.7693 -1.76352 -1.85701 -1.7693 -1.86222 -1.85701 -1.95199 -1.86222 -1.95501 -1.95199 -2.04714 -1.95501 -2.04714 2.04714 1.95501 2.04714 1.95874 1.95501 1.86222 1.95874 1.86884 1.86222 1.7693 1.86884 1.77699 1.7693 1.6794 1.77699 1.68569 1.6794 1.59786 1.68569 1.60122 1.59786 1.52648 1.60122 1.52724 1.52648 1.45705 1.52724 1.45544 1.45705 1.37919 1.45544 1.37458 1.37919 1.29186 1.37458 1.28517 1.29186 1.20009 1.28517 1.19353 1.20009 1.10786 1.19353 1.10329 1.10786 1.0165 1.10329 1.01473 1.0165 0.926034 1.01473 0.926968 0.926034 0.836416 0.926968 0.83934 0.836416 0.74826 0.83934 0.75204 0.74826 0.662928 0.75204 0.666364 0.662928 0.581712 0.666364 0.583992 0.581712 0.504143 0.583992 0.504991 0.504143 0.427259 0.504991 0.426636 0.427259 0.347633 0.426636 0.345647 0.347633 0.263994 0.345647 0.261186 0.263994 0.177254 0.261186 0.174577 0.177254 0.0889103 0.174577 0.0872995 0.0889103 0 0.0872995 0 0 -0.0889103 0 -0.0872995 -0.0889103 -0.177254 -0.0872995 -0.174577 -0.177254 -0.263994 -0.174577 -0.261186 -0.263994 -0.347633 -0.261186 -0.345647 -0.347633 -0.427259 -0.345647 -0.426636 -0.427259 -0.504143 -0.426636 -0.504991 -0.504143 -0.581712 -0.504991 -0.583992 -0.581712 -0.662928 -0.583992 -0.666364 -0.662928 -0.74826 -0.666364 -0.75204 -0.74826 -0.836416 -0.75204 -0.83934 -0.836416 -0.926034 -0.83934 -0.926968 -0.926034 -1.0165 -0.926968 -1.01473 -1.0165 -1.10786 -1.01473 -1.10329 -1.10786 -1.20009 -1.10329 -1.19353 -1.20009 -1.29186 -1.19353 -1.28517 -1.29186 -1.37919 -1.28517 -1.37458 -1.37919 -1.45705 -1.37458 -1.45544 -1.45705 -1.52648 -1.45544 -1.52724 -1.52648 -1.59786 -1.52724 -1.60122 -1.59786 -1.6794 -1.60122 -1.68569 -1.6794 -1.7693 -1.68569 -1.77699 -1.7693 -1.86222 -1.77699 -1.86884 -1.86222 -1.95501 -1.86884 -1.95874 -1.95501 -2.04714 -1.95874 -2.04714 2.04714 1.95874 2.04714 1.9632 1.95874 1.86884 1.9632 1.87703 1.86884 1.77699 1.87703 1.787 1.77699 1.68569 1.787 1.6944 1.68569 1.60122 1.6944 1.60607 1.60122 1.52724 1.60607 1.52823 1.52724 1.45544 1.52823 1.45279 1.45544 1.37458 1.45279 1.36786 1.37458 1.28517 1.36786 1.27621 1.28517 1.19353 1.27621 1.18539 1.19353 1.10329 1.18539 1.09801 1.10329 1.01473 1.09801 1.01298 1.01473 0.926968 1.01298 0.928534 0.926968 0.83934 0.928534 0.843372 0.83934 0.75204 0.843372 0.757191 0.75204 0.666364 0.757191 0.671084 0.666364 0.583992 0.671084 0.587097 0.583992 0.504991 0.587097 0.506006 0.504991 0.426636 0.506006 0.425511 0.426636 0.345647 0.425511 0.342652 0.345647 0.261186 0.342652 0.257214 0.261186 0.174577 0.257214 0.170948 0.174577 0.0872995 0.170948 0.0851723 0.0872995 0 0.0851723 0 0 -0.0872995 0 -0.0851723 -0.0872995 -0.174577 -0.0851723 -0.170948 -0.174577 -0.261186 -0.170948 -0.257214 -0.261186 -0.345647 -0.257214 -0.342652 -0.345647 -0.426636 -0.342652 -0.425511 -0.426636 -0.504991 -0.425511 -0.506006 -0.504991 -0.583992 -0.506006 -0.587097 -0.583992 -0.666364 -0.587097 -0.671084 -0.666364 -0.75204 -0.671084 -0.757191 -0.75204 -0.83934 -0.757191 -0.843372 -0.83934 -0.926968 -0.843372 -0.928534 -0.926968 -1.01473 -0.928534 -1.01298 -1.01473 -1.10329 -1.01298 -1.09801 -1.10329 -1.19353 -1.09801 -1.18539 -1.19353 -1.28517 -1.18539 -1.27621 -1.28517 -1.37458 -1.27621 -1.36786 -1.37458 -1.45544 -1.36786 -1.45279 -1.45544 -1.52724 -1.45279 -1.52823 -1.52724 -1.60122 -1.52823 -1.60607 -1.60122 -1.68569 -1.60607 -1.6944 -1.68569 -1.77699 -1.6944 -1.787 -1.77699 -1.86884 -1.787 -1.87703 -1.86884 -1.95874 -1.87703 -1.9632 -1.95874 -2.04714 -1.9632 -2.04714 2.04714 1.9632 2.04714 1.96838 1.9632 1.87703 1.96838 1.88685 1.87703 1.787 1.88685 1.79976 1.787 1.6944 1.79976 1.70638 1.6944 1.60607 1.70638 1.61314 1.60607 1.52823 1.61314 1.52953 1.52823 1.45279 1.52953 1.44854 1.45279 1.36786 1.44854 1.35815 1.36786 1.27621 1.35815 1.26443 1.27621 1.18539 1.26443 1.17554 1.18539 1.09801 1.17554 1.09207 1.09801 1.01298 1.09207 1.01136 1.01298 0.928534 1.01136 0.930866 0.928534 0.843372 0.930866 0.84872 0.843372 0.757191 0.84872 0.764039 0.757191 0.671084 0.764039 0.677484 0.671084 0.587097 0.677484 0.591326 0.587097 0.506006 0.591326 0.507227 0.506006 0.425511 0.507227 0.423644 0.425511 0.342652 0.423644 0.338268 0.342652 0.257214 0.338268 0.251741 0.257214 0.170948 0.251741 0.166167 0.170948 0.0851723 0.166167 0.082448 0.0851723 0 0.082448 0 0 -0.0851723 0 -0.082448 -0.0851723 -0.170948 -0.082448 -0.166167 -0.170948 -0.257214 -0.166167 -0.251741 -0.257214 -0.342652 -0.251741 -0.338268 -0.342652 -0.425511 -0.338268 -0.423644 -0.425511 -0.506006 -0.423644 -0.507227 -0.506006 -0.587097 -0.507227 -0.591326 -0.587097 -0.671084 -0.591326 -0.677484 -0.671084 -0.757191 -0.677484 -0.764039 -0.757191 -0.843372 -0.764039 -0.84872 -0.843372 -0.928534 -0.84872 -0.930866 -0.928534 -1.01298 -0.930866 -1.01136 -1.01298 -1.09801 -1.01136 -1.09207 -1.09801 -1.18539 -1.09207 -1.17554 -1.18539 -1.27621 -1.17554 -1.26443 -1.27621 -1.36786 -1.26443 -1.35815 -1.36786 -1.45279 -1.35815 -1.44854 -1.45279 -1.52823 -1.44854 -1.52953 -1.52823 -1.60607 -1.52953 -1.61314 -1.60607 -1.6944 -1.61314 -1.70638 -1.6944 -1.787 -1.70638 -1.79976 -1.787 -1.87703 -1.79976 -1.88685 -1.87703 -1.9632 -1.88685 -1.96838 -1.9632 -2.04714 -1.96838 -2.04714 2.04714 1.96838 2.04714 1.97423 1.96838 1.88685 1.97423 1.89825 1.88685 1.79976 1.89825 1.81555 1.79976 1.70638 1.81555 1.72274 1.70638 1.61314 1.72274 1.62366 1.61314 1.52953 1.62366 1.53132 1.52953 1.44854 1.53132 1.44168 1.44854 1.35815 1.44168 1.34417 1.35815 1.26443 1.34417 1.24932 1.26443 1.17554 1.24932 1.16402 1.17554 1.09207 1.16402 1.08559 1.09207 1.01136 1.08559 1.00998 1.01136 0.930866 1.00998 0.934079 0.930866 0.84872 0.934079 0.855567 0.84872 0.764039 0.855567 0.772935 0.764039 0.677484 0.772935 0.686083 0.677484 0.591326 0.686083 0.597118 0.591326 0.507227 0.597118 0.508713 0.507227 0.423644 0.508713 0.420673 0.423644 0.338268 0.420673 0.331967 0.338268 0.251741 0.331967 0.244376 0.251741 0.166167 0.244376 0.160048 0.166167 0.082448 0.160048 0.0790626 0.082448 0 0.0790626 0 0 -0.082448 0 -0.0790626 -0.082448 -0.166167 -0.0790626 -0.160048 -0.166167 -0.251741 -0.160048 -0.244376 -0.251741 -0.338268 -0.244376 -0.331967 -0.338268 -0.423644 -0.331967 -0.420673 -0.423644 -0.507227 -0.420673 -0.508713 -0.507227 -0.591326 -0.508713 -0.597118 -0.591326 -0.677484 -0.597118 -0.686083 -0.677484 -0.764039 -0.686083 -0.772935 -0.764039 -0.84872 -0.772935 -0.855567 -0.84872 -0.930866 -0.855567 -0.934079 -0.930866 -1.01136 -0.934079 -1.00998 -1.01136 -1.09207 -1.00998 -1.08559 -1.09207 -1.17554 -1.08559 -1.16402 -1.17554 -1.26443 -1.16402 -1.24932 -1.26443 -1.35815 -1.24932 -1.3441