# vtk DataFile Version 3.0
#This file was generated by the deal.II library on 2017/9/27 at 13:10:55
ASCII
DATASET UNSTRUCTURED_GRID

POINTS 2688 double
-3.57562 -8.91837e-24 0
-3.43171 0 0
-3.57562 0.0822879 0
-3.43169 0.0818098 0
-3.43171 0 0
-3.28655 0 0
-3.43169 0.0818098 0
-3.28652 0.0804814 0
-3.28655 0 0
-3.13913 0 0
-3.28652 0.0804814 0
-3.1391 0.078612 0
-3.13913 0 0
-2.98891 0 0
-3.1391 0.078612 0
-2.98889 0.0766769 0
-2.98891 0 0
-2.8361 0 0
-2.98889 0.0766769 0
-2.83609 0.0752168 0
-2.8361 0 0
-2.68172 0 0
-2.83609 0.0752168 0
-2.68172 0.0746728 0
-2.68172 0 0
-2.52733 0 0
-2.68172 0.0746728 0
-2.52734 0.0752168 0
-2.52733 0 0
-2.37452 0 0
-2.52734 0.0752168 0
-2.37454 0.0766769 0
-2.37452 0 0
-2.2243 0 0
-2.37454 0.0766769 0
-2.22433 0.078612 0
-2.2243 0 0
-2.07688 0 0
-2.22433 0.078612 0
-2.07691 0.0804814 0
-2.07688 0 0
-1.93173 0 0
-2.07691 0.0804814 0
-1.93174 0.0818098 0
-1.93173 0 0
-1.78781 0 0
-1.93174 0.0818098 0
-1.78781 0.0822879 0
-1.78781 0 0
-1.6439 0 0
-1.78781 0.0822879 0
-1.64388 0.0818098 0
-1.6439 0 0
-1.49874 0 0
-1.64388 0.0818098 0
-1.49871 0.0804814 0
-1.49874 0 0
-1.35132 0 0
-1.49871 0.0804814 0
-1.35129 0.078612 0
-1.35132 0 0
-1.2011 0 0
-1.35129 0.078612 0
-1.20108 0.0766769 0
-1.2011 0 0
-1.04829 0 0
-1.20108 0.0766769 0
-1.04828 0.0752168 0
-1.04829 0 0
-0.893905 0 0
-1.04828 0.0752168 0
-0.893905 0.0746728 0
-0.893905 0 0
-0.739518 0 0
-0.893905 0.0746728 0
-0.739529 0.0752168 0
-0.739518 0 0
-0.586708 0 0
-0.739529 0.0752168 0
-0.58673 0.0766769 0
-0.586708 0 0
-0.436493 0 0
-0.58673 0.0766769 0
-0.436522 0.078612 0
-0.436493 0 0
-0.289073 0 0
-0.436522 0.078612 0
-0.289101 0.0804814 0
-0.289073 0 0
-0.143915 0 0
-0.289101 0.0804814 0
-0.143932 0.0818098 0
-0.143915 0 0
0 0 0
-0.143932 0.0818098 0
0 0.0822879 0
0 0 0
0.143915 0 0
0 0.0822879 0
0.143932 0.0818098 0
0.143915 0 0
0.289073 -7.76707e-24 0
0.143932 0.0818098 0
0.289101 0.0804814 0
0.289073 -7.76707e-24 0
0.436493 5.87621e-24 0
0.289101 0.0804814 0
0.436522 0.078612 0
0.436493 5.87621e-24 0
0.586708 -2.88274e-24 0
0.436522 0.078612 0
0.58673 0.0766769 0
0.586708 -2.88274e-24 0
0.739518 -4.10844e-24 0
0.58673 0.0766769 0
0.739529 0.0752168 0
0.739518 -4.10844e-24 0
0.893905 -4.49392e-24 0
0.739529 0.0752168 0
0.893905 0.0746728 0
0.893905 -4.49392e-24 0
1.04829 3.01068e-25 0
0.893905 0.0746728 0
1.04828 0.0752168 0
1.04829 3.01068e-25 0
1.2011 -6.28583e-24 0
1.04828 0.0752168 0
1.20108 0.0766769 0
1.2011 -6.28583e-24 0
1.35132 -4.52112e-24 0
1.20108 0.0766769 0
1.35129 0.078612 0
1.35132 -4.52112e-24 0
1.49874 5.21166e-24 0
1.35129 0.078612 0
1.49871 0.0804814 0
1.49874 5.21166e-24 0
1.6439 -2.11507e-24 0
1.49871 0.0804814 0
1.64388 0.0818098 0
1.6439 -2.11507e-24 0
1.78781 -2.6659e-24 0
1.64388 0.0818098 0
1.78781 0.0822879 0
1.78781 -2.6659e-24 0
1.93173 1.51194e-24 0
1.78781 0.0822879 0
1.93174 0.0818098 0
1.93173 1.51194e-24 0
2.07688 8.99202e-24 0
1.93174 0.0818098 0
2.07691 0.0804814 0
2.07688 8.99202e-24 0
2.2243 -9.19375e-24 0
2.07691 0.0804814 0
2.22433 0.078612 0
2.2243 -9.19375e-24 0
2.37452 -5.40427e-24 0
2.22433 0.078612 0
2.37454 0.0766769 0
2.37452 -5.40427e-24 0
2.52733 -5.30102e-24 0
2.37454 0.0766769 0
2.52734 0.0752168 0
2.52733 -5.30102e-24 0
2.68172 1.95784e-24 0
2.52734 0.0752168 0
2.68172 0.0746728 0
2.68172 1.95784e-24 0
2.8361 2.95882e-24 0
2.68172 0.0746728 0
2.83609 0.0752168 0
2.8361 2.95882e-24 0
2.98891 3.80527e-24 0
2.83609 0.0752168 0
2.98889 0.0766769 0
2.98891 3.80527e-24 0
3.13913 -5.5568e-24 0
2.98889 0.0766769 0
3.1391 0.078612 0
3.13913 -5.5568e-24 0
3.28655 -7.65752e-24 0
3.1391 0.078612 0
3.28652 0.0804814 0
3.28655 -7.65752e-24 0
3.43171 2.27321e-24 0
3.28652 0.0804814 0
3.43169 0.0818098 0
3.43171 2.27321e-24 0
3.57562 -8.91837e-24 0
3.43169 0.0818098 0
3.57562 0.0822879 0
-3.57562 0.0822879 0
-3.43169 0.0818098 0
-3.57562 0.164219 0
-3.43163 0.16331 0
-3.43169 0.0818098 0
-3.28652 0.0804814 0
-3.43163 0.16331 0
-3.28642 0.160781 0
-3.28652 0.0804814 0
-3.1391 0.078612 0
-3.28642 0.160781 0
-3.139 0.157217 0
-3.1391 0.078612 0
-2.98889 0.0766769 0
-3.139 0.157217 0
-2.98881 0.15352 0
-2.98889 0.0766769 0
-2.83609 0.0752168 0
-2.98881 0.15352 0
-2.83605 0.150725 0
-2.83609 0.0752168 0
-2.68172 0.0746728 0
-2.83605 0.150725 0
-2.68172 0.149682 0
-2.68172 0.0746728 0
-2.52734 0.0752168 0
-2.68172 0.149682 0
-2.52738 0.150725 0
-2.52734 0.0752168 0
-2.37454 0.0766769 0
-2.52738 0.150725 0
-2.37462 0.15352 0
-2.37454 0.0766769 0
-2.22433 0.078612 0
-2.37462 0.15352 0
-2.22443 0.157217 0
-2.22433 0.078612 0
-2.07691 0.0804814 0
-2.22443 0.157217 0
-2.07701 0.160781 0
-2.07691 0.0804814 0
-1.93174 0.0818098 0
-2.07701 0.160781 0
-1.9318 0.16331 0
-1.93174 0.0818098 0
-1.78781 0.0822879 0
-1.9318 0.16331 0
-1.78781 0.164219 0
-1.78781 0.0822879 0
-1.64388 0.0818098 0
-1.78781 0.164219 0
-1.64382 0.16331 0
-1.64388 0.0818098 0
-1.49871 0.0804814 0
-1.64382 0.16331 0
-1.49861 0.160781 0
-1.49871 0.0804814 0
-1.35129 0.078612 0
-1.49861 0.160781 0
-1.35119 0.157217 0
-1.35129 0.078612 0
-1.20108 0.0766769 0
-1.35119 0.157217 0
-1.201 0.15352 0
-1.20108 0.0766769 0
-1.04828 0.0752168 0
-1.201 0.15352 0
-1.04824 0.150725 0
-1.04828 0.0752168 0
-0.893905 0.0746728 0
-1.04824 0.150725 0
-0.893905 0.149682 0
-0.893905 0.0746728 0
-0.739529 0.0752168 0
-0.893905 0.149682 0
-0.73957 0.150725 0
-0.739529 0.0752168 0
-0.58673 0.0766769 0
-0.73957 0.150725 0
-0.586809 0.15352 0
-0.58673 0.0766769 0
-0.436522 0.078612 0
-0.586809 0.15352 0
-0.436624 0.157217 0
-0.436522 0.078612 0
-0.289101 0.0804814 0
-0.436624 0.157217 0
-0.289199 0.160781 0
-0.289101 0.0804814 0
-0.143932 0.0818098 0
-0.289199 0.160781 0
-0.143992 0.16331 0
-0.143932 0.0818098 0
0 0.0822879 0
-0.143992 0.16331 0
0 0.164219 0
0 0.0822879 0
0.143932 0.0818098 0
0 0.164219 0
0.143992 0.16331 0
0.143932 0.0818098 0
0.289101 0.0804814 0
0.143992 0.16331 0
0.289199 0.160781 0
0.289101 0.0804814 0
0.436522 0.078612 0
0.289199 0.160781 0
0.436624 0.157217 0
0.436522 0.078612 0
0.58673 0.0766769 0
0.436624 0.157217 0
0.586809 0.15352 0
0.58673 0.0766769 0
0.739529 0.0752168 0
0.586809 0.15352 0
0.73957 0.150725 0
0.739529 0.0752168 0
0.893905 0.0746728 0
0.73957 0.150725 0
0.893905 0.149682 0
0.893905 0.0746728 0
1.04828 0.0752168 0
0.893905 0.149682 0
1.04824 0.150725 0
1.04828 0.0752168 0
1.20108 0.0766769 0
1.04824 0.150725 0
1.201 0.15352 0
1.20108 0.0766769 0
1.35129 0.078612 0
1.201 0.15352 0
1.35119 0.157217 0
1.35129 0.078612 0
1.49871 0.0804814 0
1.35119 0.157217 0
1.49861 0.160781 0
1.49871 0.0804814 0
1.64388 0.0818098 0
1.49861 0.160781 0
1.64382 0.16331 0
1.64388 0.0818098 0
1.78781 0.0822879 0
1.64382 0.16331 0
1.78781 0.164219 0
1.78781 0.0822879 0
1.93174 0.0818098 0
1.78781 0.164219 0
1.9318 0.16331 0
1.93174 0.0818098 0
2.07691 0.0804814 0
1.9318 0.16331 0
2.07701 0.160781 0
2.07691 0.0804814 0
2.22433 0.078612 0
2.07701 0.160781 0
2.22443 0.157217 0
2.22433 0.078612 0
2.37454 0.0766769 0
2.22443 0.157217 0
2.37462 0.15352 0
2.37454 0.0766769 0
2.52734 0.0752168 0
2.37462 0.15352 0
2.52738 0.150725 0
2.52734 0.0752168 0
2.68172 0.0746728 0
2.52738 0.150725 0
2.68172 0.149682 0
2.68172 0.0746728 0
2.83609 0.0752168 0
2.68172 0.149682 0
2.83605 0.150725 0
2.83609 0.0752168 0
2.98889 0.0766769 0
2.83605 0.150725 0
2.98881 0.15352 0
2.98889 0.0766769 0
3.1391 0.078612 0
2.98881 0.15352 0
3.139 0.157217 0
3.1391 0.078612 0
3.28652 0.0804814 0
3.139 0.157217 0
3.28642 0.160781 0
3.28652 0.0804814 0
3.43169 0.0818098 0
3.28642 0.160781 0
3.43163 0.16331 0
3.43169 0.0818098 0
3.57562 0.0822879 0
3.43163 0.16331 0
3.57562 0.164219 0
-3.57562 0.164219 0
-3.43163 0.16331 0
-3.57562 0.245854 0
-3.43152 0.244555 0
-3.43163 0.16331 0
-3.28642 0.160781 0
-3.43152 0.244555 0
-3.28625 0.240935 0
-3.28642 0.160781 0
-3.139 0.157217 0
-3.28625 0.240935 0
-3.13881 0.235821 0
-3.139 0.157217 0
-2.98881 0.15352 0
-3.13881 0.235821 0
-2.98867 0.230501 0
-2.98881 0.15352 0
-2.83605 0.150725 0
-2.98867 0.230501 0
-2.83598 0.226468 0
-2.83605 0.150725 0
-2.68172 0.149682 0
-2.83598 0.226468 0
-2.68172 0.224962 0
-2.68172 0.149682 0
-2.52738 0.150725 0
-2.68172 0.224962 0
-2.52745 0.226468 0
-2.52738 0.150725 0
-2.37462 0.15352 0
-2.52745 0.226468 0
-2.37476 0.230501 0
-2.37462 0.15352 0
-2.22443 0.157217 0
-2.37476 0.230501 0
-2.22462 0.235821 0
-2.22443 0.157217 0
-2.07701 0.160781 0
-2.22462 0.235821 0
-2.07719 0.240935 0
-2.07701 0.160781 0
-1.9318 0.16331 0
-2.07719 0.240935 0
-1.93191 0.244555 0
-1.9318 0.16331 0
-1.78781 0.164219 0
-1.93191 0.244555 0
-1.78781 0.245854 0
-1.78781 0.164219 0
-1.64382 0.16331 0
-1.78781 0.245854 0
-1.64371 0.244555 0
-1.64382 0.16331 0
-1.49861 0.160781 0
-1.64371 0.244555 0
-1.49844 0.240935 0
-1.49861 0.160781 0
-1.35119 0.157217 0
-1.49844 0.240935 0
-1.351 0.235821 0
-1.35119 0.157217 0
-1.201 0.15352 0
-1.351 0.235821 0
-1.20086 0.230501 0
-1.201 0.15352 0
-1.04824 0.150725 0
-1.20086 0.230501 0
-1.04817 0.226468 0
-1.04824 0.150725 0
-0.893905 0.149682 0
-1.04817 0.226468 0
-0.893905 0.224962 0
-0.893905 0.149682 0
-0.73957 0.150725 0
-0.893905 0.224962 0
-0.739643 0.226468 0
-0.73957 0.150725 0
-0.586809 0.15352 0
-0.739643 0.226468 0
-0.58695 0.230501 0
-0.586809 0.15352 0
-0.436624 0.157217 0
-0.58695 0.230501 0
-0.436808 0.235821 0
-0.436624 0.157217 0
-0.289199 0.160781 0
-0.436808 0.235821 0
-0.289375 0.240935 0
-0.289199 0.160781 0
-0.143992 0.16331 0
-0.289375 0.240935 0
-0.144101 0.244555 0
-0.143992 0.16331 0
0 0.164219 0
-0.144101 0.244555 0
0 0.245854 0
0 0.164219 0
0.143992 0.16331 0
0 0.245854 0
0.144101 0.244555 0
0.143992 0.16331 0
0.289199 0.160781 0
0.144101 0.244555 0
0.289375 0.240935 0
0.289199 0.160781 0
0.436624 0.157217 0
0.289375 0.240935 0
0.436808 0.235821 0
0.436624 0.157217 0
0.586809 0.15352 0
0.436808 0.235821 0
0.58695 0.230501 0
0.586809 0.15352 0
0.73957 0.150725 0
0.58695 0.230501 0
0.739643 0.226468 0
0.73957 0.150725 0
0.893905 0.149682 0
0.739643 0.226468 0
0.893905 0.224962 0
0.893905 0.149682 0
1.04824 0.150725 0
0.893905 0.224962 0
1.04817 0.226468 0
[...]
POINT_DATA 2688
SCALARS x1_displacement double 1
LOOKUP_TABLE default
2.05645 1.9657 2.05645 1.96571 1.9657 1.87618 1.96571 1.87621 1.87618 1.78893 1.87621 1.78896 1.78893 1.70448 1.78896 1.7045 1.70448 1.62262 1.7045 1.62263 1.62262 1.54234 1.62263 1.54234 1.54234 1.46206 1.54234 1.46204 1.46206 1.3802 1.46204 1.38017 1.3802 1.29574 1.38017 1.29571 1.29574 1.20849 1.29571 1.20846 1.20849 1.11898 1.20846 1.11896 1.11898 1.02823 1.11896 1.02823 1.02823 0.937471 1.02823 0.937488 0.937471 0.847959 0.937488 0.847987 0.847959 0.760709 0.847987 0.760738 0.760709 0.676255 0.760738 0.676277 0.676255 0.594395 0.676277 0.594406 0.594395 0.514113 0.594406 0.514113 0.514113 0.433831 0.514113 0.433819 0.433831 0.351971 0.433819 0.351949 0.351971 0.267516 0.351949 0.267487 0.267516 0.180266 0.267487 0.180239 0.180266 0.0907549 0.180239 0.0907378 0.0907549 0 0.0907378 0 0 -0.0907549 0 -0.0907378 -0.0907549 -0.180266 -0.0907378 -0.180239 -0.180266 -0.267516 -0.180239 -0.267487 -0.267516 -0.351971 -0.267487 -0.351949 -0.351971 -0.433831 -0.351949 -0.433819 -0.433831 -0.514113 -0.433819 -0.514113 -0.514113 -0.594395 -0.514113 -0.594406 -0.594395 -0.676255 -0.594406 -0.676277 -0.676255 -0.760709 -0.676277 -0.760738 -0.760709 -0.847959 -0.760738 -0.847987 -0.847959 -0.937471 -0.847987 -0.937488 -0.937471 -1.02823 -0.937488 -1.02823 -1.02823 -1.11898 -1.02823 -1.11896 -1.11898 -1.20849 -1.11896 -1.20846 -1.20849 -1.29574 -1.20846 -1.29571 -1.29574 -1.3802 -1.29571 -1.38017 -1.3802 -1.46206 -1.38017 -1.46204 -1.46206 -1.54234 -1.46204 -1.54234 -1.54234 -1.62262 -1.54234 -1.62263 -1.62262 -1.70448 -1.62263 -1.7045 -1.70448 -1.78893 -1.7045 -1.78896 -1.78893 -1.87618 -1.78896 -1.87621 -1.87618 -1.9657 -1.87621 -1.96571 -1.9657 -2.05645 -1.96571 -2.05645 2.05645 1.96571 2.05645 1.96577 1.96571 1.87621 1.96577 1.87631 1.87621 1.78896 1.87631 1.78907 1.78896 1.7045 1.78907 1.70458 1.7045 1.62263 1.70458 1.62267 1.62263 1.54234 1.62267 1.54234 1.54234 1.46204 1.54234 1.462 1.46204 1.38017 1.462 1.3801 1.38017 1.29571 1.3801 1.29561 1.29571 1.20846 1.29561 1.20837 1.20846 1.11896 1.20837 1.1189 1.11896 1.02823 1.1189 1.02823 1.02823 0.937488 1.02823 0.937548 0.937488 0.847987 0.937548 0.848085 0.847987 0.760738 0.848085 0.760841 0.760738 0.676277 0.760841 0.676356 0.676277 0.594406 0.676356 0.594447 0.594406 0.514113 0.594447 0.514113 0.514113 0.433819 0.514113 0.433778 0.433819 0.351949 0.433778 0.35187 0.351949 0.267487 0.35187 0.267385 0.267487 0.180239 0.267385 0.180141 0.180239 0.0907378 0.180141 0.0906774 0.0907378 0 0.0906774 0 0 -0.0907378 0 -0.0906774 -0.0907378 -0.180239 -0.0906774 -0.180141 -0.180239 -0.267487 -0.180141 -0.267385 -0.267487 -0.351949 -0.267385 -0.35187 -0.351949 -0.433819 -0.35187 -0.433778 -0.433819 -0.514113 -0.433778 -0.514113 -0.514113 -0.594406 -0.514113 -0.594447 -0.594406 -0.676277 -0.594447 -0.676356 -0.676277 -0.760738 -0.676356 -0.760841 -0.760738 -0.847987 -0.760841 -0.848085 -0.847987 -0.937488 -0.848085 -0.937548 -0.937488 -1.02823 -0.937548 -1.02823 -1.02823 -1.11896 -1.02823 -1.1189 -1.11896 -1.20846 -1.1189 -1.20837 -1.20846 -1.29571 -1.20837 -1.29561 -1.29571 -1.38017 -1.29561 -1.3801 -1.38017 -1.46204 -1.3801 -1.462 -1.46204 -1.54234 -1.462 -1.54234 -1.54234 -1.62263 -1.54234 -1.62267 -1.62263 -1.7045 -1.62267 -1.70458 -1.7045 -1.78896 -1.70458 -1.78907 -1.78896 -1.87621 -1.78907 -1.87631 -1.87621 -1.96571 -1.87631 -1.96577 -1.96571 -2.05645 -1.96577 -2.05645 2.05645 1.96577 2.05645 1.96588 1.96577 1.87631 1.96588 1.87649 1.87631 1.78907 1.87649 1.78925 1.78907 1.70458 1.78925 1.70472 1.70458 1.62267 1.70472 1.62275 1.62267 1.54234 1.62275 1.54234 1.54234 1.462 1.54234 1.46193 1.462 1.3801 1.46193 1.37995 1.3801 1.29561 1.37995 1.29543 1.29561 1.20837 1.29543 1.20819 1.20837 1.1189 1.20819 1.11879 1.1189 1.02823 1.11879 1.02823 1.02823 0.937548 1.02823 0.937657 0.937548 0.848085 0.937657 0.848261 0.848085 0.760841 0.848261 0.761024 0.760841 0.676356 0.761024 0.676496 0.676356 0.594447 0.676496 0.59452 0.594447 0.514113 0.59452 0.514113 0.514113 0.433778 0.514113 0.433705 0.433778 0.35187 0.433705 0.351729 0.35187 0.267385 0.351729 0.267201 0.267385 0.180141 0.267201 0.179965 0.180141 0.0906774 0.179965 0.0905691 0.0906774 0 0.0905691 0 0 -0.0906774 0 -0.0905691 -0.0906774 -0.180141 -0.0905691 -0.179965 -0.180141 -0.267385 -0.179965 -0.267201 -0.267385 -0.35187 -0.267201 -0.351729 -0.35187 -0.433778 -0.351729 -0.433705 -0.433778 -0.514113 -0.433705 -0.514113 -0.514113 -0.594447 -0.514113 -0.59452 -0.594447 -0.676356 -0.59452 -0.676496 -0.676356 -0.760841 -0.676496 -0.761024 -0.760841 -0.848085 -0.761024 -0.848261 -0.848085 -0.937548 -0.848261 -0.937657 -0.937548 -1.02823 -0.937657 -1.02823 -1.02823 -1.1189 -1.02823 -1.11879 -1.1189 -1.20837 -1.11879 -1.20819 -1.20837 -1.29561 -1.20819 -1.29543 -1.29561 -1.3801 -1.29543 -1.37995 -1.3801 -1.462 -1.37995 -1.46193 -1.462 -1.54234 -1.46193 -1.54234 -1.54234 -1.62267 -1.54234 -1.62275 -1.62267 -1.70458 -1.62275 -1.70472 -1.70458 -1.78907 -1.70472 -1.78925 -1.78907 -1.87631 -1.78925 -1.87649 -1.87631 -1.96577 -1.87649 -1.96588 -1.96577 -2.05645 -1.96588 -2.05645 2.05645 1.96588 2.05645 1.96605 1.96588 1.87649 1.96605 1.87676 1.87649 1.78925 1.87676 1.78954 1.78925 1.70472 1.78954 1.70495 1.70472 1.62275 1.70495 1.62286 1.62275 1.54234 1.62286 1.54234 1.54234 1.46193 1.54234 1.46181 1.46193 1.37995 1.46181 1.37973 1.37995 1.29543 1.37973 1.29514 1.29543 1.20819 1.29514 1.20791 1.20819 1.11879 1.20791 1.11862 1.11879 1.02823 1.11862 1.02823 1.02823 0.937657 1.02823 0.937827 0.937657 0.848261 0.937827 0.848538 0.848261 0.761024 0.848538 0.761315 0.761024 0.676496 0.761315 0.676721 0.676496 0.59452 0.676721 0.594638 0.59452 0.514113 0.594638 0.514113 0.514113 0.433705 0.514113 0.433588 0.433705 0.351729 0.433588 0.351505 0.351729 0.267201 0.351505 0.266911 0.267201 0.179965 0.266911 0.179688 0.179965 0.0905691 0.179688 0.090399 0.0905691 0 0.090399 0 0 -0.0905691 0 -0.090399 -0.0905691 -0.179965 -0.090399 -0.179688 -0.179965 -0.267201 -0.179688 -0.266911 -0.267201 -0.351729 -0.266911 -0.351505 -0.351729 -0.433705 -0.351505 -0.433588 -0.433705 -0.514113 -0.433588 -0.514113 -0.514113 -0.59452 -0.514113 -0.594638 -0.59452 -0.676496 -0.594638 -0.676721 -0.676496 -0.761024 -0.676721 -0.761315 -0.761024 -0.848261 -0.761315 -0.848538 -0.848261 -0.937657 -0.848538 -0.937827 -0.937657 -1.02823 -0.937827 -1.02823 -1.02823 -1.11879 -1.02823 -1.11862 -1.11879 -1.20819 -1.11862 -1.20791 -1.20819 -1.29543 -1.20791 -1.29514 -1.29543 -1.37995 -1.29514 -1.37973 -1.37995 -1.46193 -1.37973 -1.46181 -1.46193 -1.54234 -1.46181 -1.54234 -1.54234 -1.62275 -1.54234 -1.62286 -1.62275 -1.70472 -1.62286 -1.70495 -1.70472 -1.78925 -1.70495 -1.78954 -1.78925 -1.87649 -1.78954 -1.87676 -1.87649 -1.96588 -1.87676 -1.96605 -1.96588 -2.05645 -1.96605 -2.05645 2.05645 1.96605 2.05645 1.96631 1.96605 1.87676 1.96631 1.87718 1.87676 1.78954 1.87718 1.78998 1.78954 1.70495 1.78998 1.70529 1.70495 1.62286 1.70529 1.62304 1.62286 1.54234 1.62304 1.54234 1.54234 1.46181 1.54234 1.46163 1.46181 1.37973 1.46163 1.37939 1.37973 1.29514 1.37939 1.2947 1.29514 1.20791 1.2947 1.2075 1.20791 1.11862 1.2075 1.11837 1.11862 1.02823 1.11837 1.02823 1.02823 0.937827 1.02823 0.93808 0.937827 0.848538 0.93808 0.848954 0.848538 0.761315 0.848954 0.761756 0.761315 0.676721 0.761756 0.677065 0.676721 0.594638 0.677065 0.594819 0.594638 0.514113 0.594819 0.514113 0.514113 0.433588 0.514113 0.433406 0.433588 0.351505 0.433406 0.35116 0.351505 0.266911 0.35116 0.266469 0.266911 0.179688 0.266469 0.179271 0.179688 0.090399 0.179271 0.0901453 0.090399 0 0.0901453 0 0 -0.090399 0 -0.0901453 -0.090399 -0.179688 -0.0901453 -0.179271 -0.179688 -0.266911 -0.179271 -0.266469 -0.266911 -0.351505 -0.266469 -0.35116 -0.351505 -0.433588 -0.35116 -0.433406 -0.433588 -0.514113 -0.433406 -0.514113 -0.514113 -0.594638 -0.514113 -0.594819 -0.594638 -0.676721 -0.594819 -0.677065 -0.676721 -0.761315 -0.677065 -0.761756 -0.761315 -0.848538 -0.761756 -0.848954 -0.848538 -0.937827 -0.848954 -0.93808 -0.937827 -1.02823 -0.93808 -1.02823 -1.02823 -1.11862 -1.02823 -1.11837 -1.11862 -1.20791 -1.11837 -1.2075 -1.20791 -1.29514 -1.2075 -1.2947 -1.29514 -1.37973 -1.2947 -1.37939 -1.37973 -1.46181 -1.37939 -1.46163 -1.46181 -1.54234 -1.46163 -1.54234 -1.54234 -1.62286 -1.54234 -1.62304 -1.62286 -1.70495 -1.62304 -1.70529 -1.70495 -1.78954 -1.70529 -1.78998 -1.78954 -1.87676 -1.78998 -1.87718 -1.87676 -1.96605 -1.87718 -1.96631 -1.96605 -2.05645 -1.96631 -2.05645 2.05645 1.96631 2.05645 1.96667 1.96631 1.87718 1.96667 1.87779 1.87718 1.78998 1.87779 1.79063 1.78998 1.70529 1.79063 1.70581 1.70529 1.62304 1.70581 1.62332 1.62304 1.54234 1.62332 1.54234 1.54234 1.46163 1.54234 1.46136 1.46163 1.37939 1.46136 1.37887 1.37939 1.2947 1.37887 1.29404 1.2947 1.2075 1.29404 1.20689 1.2075 1.11837 1.20689 1.118 1.11837 1.02823 1.118 1.02823 1.02823 0.93808 1.02823 0.938447 0.93808 0.848954 0.938447 0.849562 0.848954 0.761756 0.849562 0.762408 0.761756 0.677065 0.762408 0.677582 0.677065 0.594819 0.677582 0.595096 0.594819 0.514113 0.595096 0.514113 0.514113 0.433406 0.514113 0.43313 0.433406 0.35116 0.43313 0.350643 0.35116 0.266469 0.350643 0.265817 0.266469 0.179271 0.265817 0.178664 0.179271 0.0901453 0.178664 0.0897783 0.0901453 0 0.0897783 0 0 -0.0901453 0 -0.0897783 -0.0901453 -0.179271 -0.0897783 -0.178664 -0.179271 -0.266469 -0.178664 -0.265817 -0.266469 -0.35116 -0.265817 -0.350643 -0.35116 -0.433406 -0.350643 -0.43313 -0.433406 -0.514113 -0.43313 -0.514113 -0.514113 -0.594819 -0.514113 -0.595096 -0.594819 -0.677065 -0.595096 -0.677582 -0.677065 -0.761756 -0.677582 -0.762408 -0.761756 -0.848954 -0.762408 -0.849562 -0.848954 -0.93808 -0.849562 -0.938447 -0.93808 -1.02823 -0.938447 -1.02823 -1.02823 -1.11837 -1.02823 -1.118 -1.11837 -1.2075 -1.118 -1.20689 -1.2075 -1.2947 -1.20689 -1.29404 -1.2947 -1.37939 -1.29404 -1.37887 -1.37939 -1.46163 -1.37887 -1.46136 -1.46163 -1.54234 -1.46136 -1.54234 -1.54234 -1.62304 -1.54234 -1.62332 -1.62304 -1.70529 -1.62332 -1.70581 -1.70529 -1.78998 -1.70581 -1.79063 -1.78998 -1.87718 -1.79063 -1.87779 -1.87718 -1.96631 -1.87779 -1.96667 -1.96631 -2.05645 -1.96667 -2.05645 2.05645 1.96667 2.05645 1.96719 1.96667 1.87779 1.96719 1.87865 1.87779 1.79063 1.87865 1.79158 1.79063 1.70581 1.79158 1.70657 1.70581 1.62332 1.70657 1.62373 1.62332 1.54234 1.62373 1.54234 1.54234 1.46136 1.54234 1.46094 1.46136 1.37887 1.46094 1.37811 1.37887 1.29404 1.37811 1.2931 1.29404 1.20689 1.2931 1.20602 1.20689 1.118 1.20602 1.11749 1.118 1.02823 1.11749 1.02823 1.02823 0.938447 1.02823 0.938965 0.938447 0.849562 0.938965 0.850426 0.849562 0.762408 0.850426 0.763349 0.762408 0.677582 0.763349 0.678341 0.677582 0.595096 0.678341 0.595506 0.595096 0.514113 0.595506 0.514113 0.514113 0.43313 0.514113 0.432719 0.43313 0.350643 0.432719 0.349885 0.350643 0.265817 0.349885 0.264876 0.265817 0.178664 0.264876 0.177799 0.178664 0.0897783 0.177799 0.0892605 0.0897783 0 0.0892605 0 0 -0.0897783 0 -0.0892605 -0.0897783 -0.178664 -0.0892605 -0.177799 -0.178664 -0.265817 -0.177799 -0.264876 -0.265817 -0.350643 -0.264876 -0.349885 -0.350643 -0.43313 -0.349885 -0.432719 -0.43313 -0.514113 -0.432719 -0.514113 -0.514113 -0.595096 -0.514113 -0.595506 -0.595096 -0.677582 -0.595506 -0.678341 -0.677582 -0.762408 -0.678341 -0.763349 -0.762408 -0.849562 -0.763349 -0.850426 -0.849562 -0.938447 -0.850426 -0.938965 -0.938447 -1.02823 -0.938965 -1.02823 -1.02823 -1.118 -1.02823 -1.11749 -1.118 -1.20689 -1.11749 -1.20602 -1.20689 -1.29404 -1.20602 -1.2931 -1.29404 -1.37887 -1.2931 -1.37811 -1.37887 -1.46136 -1.37811 -1.46094 -1.46136 -1.54234 -1.46094 -1.54234 -1.54234 -1.62332 -1.54234 -1.62373 -1.62332 -1.70581 -1.62373 -1.70657 -1.70581 -1.79063 -1.70657 -1.79158 -1.79063 -1.87779 -1.79158 -1.87865 -1.87779 -1.96667 -1.87865 -1.96719 -1.96667 -2.05645 -1.96719 -2.05645 2.05645 1.96719 2.05645 1.9679 1.96719 1.87865 1.9679 1.87986 1.87865 1.79158 1.87986 1.7929 1.79158 1.70657 1.7929 1.70765 1.70657 1.62373 1.70765 1.62433 1.62373 1.54234 1.62433 1.54234 1.54234 1.46094 1.54234 1.46035 1.46094 1.37811 1.46035 1.37702 1.37811 1.2931 1.37702 1.29177 1.2931 1.20602 1.29177 1.20482 1.20602 1.11749 1.20482 1.11677 1.11749 1.02823 1.11677 1.02823 1.02823 0.938965 1.02823 0.939678 0.938965 0.850426 0.939678 0.85163 0.850426 0.763349 0.85163 0.764679 0.763349 0.678341 0.764679 0.679429 0.678341 0.595506 0.679429 0.596104 0.595506 0.514113 0.596104 0.514113 0.514113 0.432719 0.514113 0.432122 0.432719 0.349885 0.432122 0.348796 0.349885 0.264876 0.348796 0.263547 0.264876 0.177799 0.263547 0.176596 0.177799 0.0892605 0.176596 0.0885472 0.0892605 0 0.0885472 0 0 -0.0892605 0 -0.0885472 -0.0892605 -0.177799 -0.0885472 -0.176596 -0.177799 -0.264876 -0.176596 -0.263547 -0.264876 -0.349885 -0.263547 -0.348796 -0.349885 -0.432719 -0.348796 -0.432122 -0.432719 -0.514113 -0.432122 -0.514113 -0.514113 -0.595506 -0.514113 -0.596104 -0.595506 -0.678341 -0.596104 -0.679429 -0.678341 -0.763349 -0.679429 -0.764679 -0.763349 -0.850426 -0.764679 -0.85163 -0.850426 -0.938965 -0.85163 -0.939678 -0.938965 -1.02823 -0.939678 -1.02823 -1.02823 -1.11749 -1.02823 -1.11677 -1.11749 -1.20602 -1.11677 -1.20482 -1.20602 -1.2931 -1.20482 -1.29177 -1.2931 -1.37811 -1.29177 -1.37702 -1.37811 -1.46094 -1.37702 -1.46035 -1.46094 -1.54234 -1.46035 -1.54234 -1.54234 -1.62373 -1.54234 -1.62433 -1.62373 -1.70657 -1.62433 -1.70765 -1.70657 -1.79158 -1.70765 -1.7929 -1.79158 -1.87865 -1.7929 -1.87986 -1.87865 -1.96719 -1.87986 -1.9679 -1.96719 -2.05645 -1.9679 -2.05645 2.05645 1.9679 2.05645 1.96886 1.9679 1.87986 1.96886 1.88149 1.87986 1.7929 1.88149 1.79474 1.7929 1.70765 1.79474 1.70919 1.70765 1.62433 1.70919 1.62518 1.62433 1.54234 1.62518 1.54234 1.54234 1.46035 1.54234 1.4595 1.46035 1.37702 1.4595 1.37549 1.37702 1.29177 1.37549 1.28993 1.29177 1.20482 1.28993 1.20318 1.20482 1.11677 1.20318 1.11581 1.11677 1.02823 1.11581 1.02823 1.02823 0.939678 1.02823 0.940639 0.939678 0.85163 0.940639 0.853269 0.85163 0.764679 0.853269 0.766519 0.764679 0.679429 0.766519 0.680962 0.679429 0.596104 0.680962 0.596956 0.596104 0.514113 0.596956 0.514113 0.514113 0.432122 0.514113 0.43127 0.432122 0.348796 0.43127 0.347264 0.348796 0.263547 0.347264 0.261707 0.263547 0.176596 0.261707 0.174957 0.176596 0.0885472 0.174957 0.0875867 0.0885472 0 0.0875867 0 0 -0.0885472 0 -0.0875867 -0.0885472 -0.176596 -0.0875867 -0.174957 -0.176596 -0.263547 -0.174957 -0.261707 -0.263547 -0.348796 -0.261707 -0.347264 -0.348796 -0.432122 -0.347264 -0.43127 -0.432122 -0.514113 -0.43127 -0.514113 -0.514113 -0.596104 -0.514113 -0.596956 -0.596104 -0.679429 -0.596956 -0.680962 -0.679429 -0.764679 -0.680962 -0.766519 -0.764679 -0.85163 -0.766519 -0.853269 -0.85163 -0.939678 -0.853269 -0.940639 -0.939678 -1.02823 -0.940639 -1.02823 -1.02823 -1.11677 -1.02823 -1.11581 -1.11677 -1.20482 -1.11581 -1.20318 -1.20482 -1.29177 -1.20318 -1.28993 -1.29177 -1.37702 -1.28993 -1.37549 -1.37702 -1.46035 -1.37549 -1.4595 -1.46035 -1.54234 -1.4595 -1.54234 -1.54234 -1.62433 -1.54234 -1.62518 -1.62433 -1.70765 -1.62518 -1.70919 -1.70765 -1.7929 -1.70919 -1.79474 -1.7929 -1.87986 -1.79474 -1.88149 -1.87986 -1.9679 -1.88149 -1.96886 -1.9679 -2.05645 -1.96886 -2.05645 2.05645 1.96886 2.05645 1.97013 1.96886 1.88149 1.97013 1.88368 1.88149 1.79474 1.88368 1.79724 1.79474 1.70919 1.79724 1.71131 1.70919 1.62518 1.71131 1.62638 1.62518 1.54234 1.62638 1.54234 1.54234 1.4595 1.54234 1.4583 1.4595 1.37549 1.4583 1.37337 1.37549 1.28993 1.37337 1.28743 1.28993 1.20318 1.28743 1.201 1.20318 1.11581 1.201 1.11455 1.11581 1.02823 1.11455 1.02823 1.02823 0.940639 1.02823 0.941904 0.940639 0.853269 0.941904 0.855455 0.853269 0.766519 0.855455 0.769019 0.766519 0.680962 0.769019 0.683085 0.680962 0.596956 0.683085 0.598155 0.596956 0.514113 0.598155 0.514113 0.514113 0.43127 0.514113 0.430071 0.43127 0.347264 0.430071 0.345141 0.347264 0.261707 0.345141 0.259207 0.261707 0.174957 0.259207 0.17277 0.174957 0.0875867 0.17277 0.0863213 0.0875867 0 0.0863213 0 0 -0.0875867 0 -0.0863213 -0.0875867 -0.174957 -0.0863213 -0.17277 -0.174957 -0.261707 -0.17277 -0.259207 -0.261707 -0.347264 -0.259207 -0.345141 -0.347264 -0.43127 -0.345141 -0.430071 -0.43127 -0.514113 -0.430071 -0.514113 -0.514113 -0.596956 -0.514113 -0.598155 -0.596956 -0.680962 -0.598155 -0.683085 -0.680962 -0.766519 -0.683085 -0.769019 -0.766519 -0.853269 -0.769019 -0.855455 -0.853269 -0.940639 -0.855455 -0.941904 -0.940639 -1.02823 -0.941904 -1.02823 -1.02823 -1.11581 -1.02823 -1.11455 -1.11581 -1.20318 -1.11455 -1.201 -1.20318 -1.28993 -1.201 -1.28743 -1.28993 -1.37549 -1.28743 -1.37337 -1.37549 -1.4595 -1.37337 -1.4583 -1.4595 -1.54234 -1.4583 -1.54234 -1.54234 -1.62518 -1.54234 -1.62638 -1.62518 -1.70919 -1.62638 -1.71131 -1.70919 -1.79474 -1.71131 -1.79724 -1.79474 -1.88149 -1.79724 -1.88368 -1.88149 -1.96886 -1.88368 -1.97013 -1.96886 -2.05645 -1.97013 -2.05645 2.05645 1.97013 2.05645 1.97176 1.97013 1.88368 1.97176 1.88654 1.88368 1.79724 1.88654 1.80059 1.79724 1.71131 1.80059 1.71421 1.71131 1.62638 1.71421 1.62805 1.62638 1.54234 1.62805 1.54234 1.54234 1.4583 1.54234 1.45663 1.4583 1.37337 1.45663 1.37046 1.37337 1.28743 1.37046 1.28409 1.28743 1.201 1.28409 1.19813 1.201 1.11455 1.19813 1.11292 1.11455 1.02823 1.11292 1.02823 1.02823 0.941904 1.02823 0.943536 0.941904 0.855455 0.943536 0.858316 0.855455 0.769019 0.858316 0.772361 0.769019 0.683085 0.772361 0.685988 0.683085 0.598155 0.685988 0.599823 0.598155 0.514113 0.599823 0.514113 0.514113 0.430071 0.514113 0.428403 0.430071 0.345141 0.428403 0.342237 0.345141 0.259207 0.342237 0.255864 0.259207 0.17277 0.255864 0.169909 0.17277 0.0863213 0.169909 0.0846896 0.0863213 0 0.0846896 0 0 -0.0863213 0 -0.0846896 -0.0863213 -0.17277 -0.0846896 -0.169909 -0.17277 -0.259207 -0.169909 -0.255864 -0.259207 -0.345141 -0.255864 -0.342237 -0.345141 -0.430071 -0.342237 -0.428403 -0.430071 -0.514113 -0.428403 -0.514113 -0.514113 -0.598155 -0.514113 -0.599823 -0.598155 -0.683085 -0.599823 -0.685988 -0.683085 -0.769019 -0.685988 -0.772361 -0.769019 -0.855455 -0.772361 -0.858316 -0.855455 -0.941904 -0.858316 -0.943536 -0.941904 -1.02823 -0.943536 -1.02823 -1.02823 -1.11455 -1.02823 -1.11292 -1.11455 -1.201 -1.11292 -1.19813 -1.201 -1.28743 -1.19813 -1.28409 -1.28743 -1.37337 -1.28409 -1.37046 -1.37337 -1.4583 -1.37046 -1.45663 -1.4583 -1.54234 -1.45663 -1.54234 -1.54234 -1.62638 -1.54234 -1.62805 -1.62638 -1.71131 -1.62805 -1.71421 -1.71131 -1.79724 -1.71421 -1.80059 -1.79724 -1.88368 -1.80059 -1.88654 -1.88368 -1.97013 -1.88654 -1.97176 -1.97013 -2.05645 -1.97176 -2.05645 2.05645 1.97176 2.05645 1.97382 1.97176 1.88654 1.97382 1.89022 1.88654 1.80059 1.89022 1.80499 1.80059 1.71421 1.80499 1.71815 1.71421 1.62805 1.71815 1.63036 1.62805 1.54234 1.63036 1.54234 1.54234 1.45663 1.54234 1.45432 1.45663 1.37046 1.45432 1.36653 1.37046 1.28409 1.36653 1.27969 1.28409 1.19813 1.27969 1.19446 1.19813 1.11292 1.19446 1.11086 1.11292 1.02823 1.11086 1.02823 1.02823 0.943536 1.02823 0.945595 0.943536 0.858316 0.945595 0.86199 0.858316 0.772361 0.86199 0.776763 0.772361 0.685988 0.776763 0.689922 0.685988 0.599823 0.689922 0.602134 0.599823 0.514113 0.602134 0.514113 0.514113 0.428403 0.514113 0.426092 0.428403 0.342237 0.426092 0.338303 0.342237 0.255864 0.338303 0.251462 0.255864 0.169909 0.251462 0.166236 0.169909 0.0846896 0.166236 0.0826303 0.0846896 0 0.0826303 0 0 -0.0846896 0 -0.0826303 -0.0846896 -0.169909 -0.0826303 -0.166236 -0.169909 -0.255864 -0.166236 -0.251462 -0.255864 -0.342237 -0.251462 -0.338303 -0.342237 -0.428403 -0.338303 -0.426092 -0.428403 -0.514113 -0.426092 -0.514113 -0.514113 -0.599823 -0.514113 -0.602134 -0.599823 -0.685988 -0.602134 -0.689922 -0.685988 -0.772361 -0.689922 -0.776763 -0.772361 -0.858316 -0.776763 -0.86199 -0.858316 -0.943536 -0.86199 -0.945595 -0.943536 -1.02823 -0.945595 -1.02823 -1.02823 -1.11292 -1.02823 -1.11086 -1.11292 -1.19813 -1.11086 -1.19446 -1.19813 -1.28409 -1.19446 -1.27969 -1.28409 -1.37046 -1.27969 -1.36653 -1.370