# vtk DataFile Version 3.0
#This file was generated by the deal.II library on 2017/9/27 at 13:08:51
ASCII
DATASET UNSTRUCTURED_GRID

POINTS 2688 double
-3.57518 -3.01216e-24 0
-3.42796 0 0
-3.57518 0.0797834 0
-3.42796 0.0796148 0
-3.42796 0 0
-3.28029 0 0
-3.42796 0.0796148 0
-3.28028 0.0791517 0
-3.28029 0 0
-3.13182 0 0
-3.28028 0.0791517 0
-3.13181 0.0785127 0
-3.13182 0 0
-2.9824 0 0
-3.13181 0.0785127 0
-2.98239 0.0778661 0
-2.9824 0 0
-2.83214 0 0
-2.98239 0.0778661 0
-2.83213 0.077388 0
-2.83214 0 0
-2.68138 0 0
-2.83213 0.077388 0
-2.68138 0.0772119 0
-2.68138 0 0
-2.53063 0 0
-2.68138 0.0772119 0
-2.53064 0.077388 0
-2.53063 0 0
-2.38037 0 0
-2.53064 0.077388 0
-2.38038 0.0778661 0
-2.38037 0 0
-2.23095 0 0
-2.38038 0.0778661 0
-2.23096 0.0785127 0
-2.23095 0 0
-2.08248 0 0
-2.23096 0.0785127 0
-2.08249 0.0791517 0
-2.08248 0 0
-1.93481 0 0
-2.08249 0.0791517 0
-1.93481 0.0796148 0
-1.93481 0 0
-1.78759 0 0
-1.93481 0.0796148 0
-1.78759 0.0797834 0
-1.78759 0 0
-1.64037 0 0
-1.78759 0.0797834 0
-1.64037 0.0796148 0
-1.64037 0 0
-1.4927 0 0
-1.64037 0.0796148 0
-1.49269 0.0791517 0
-1.4927 0 0
-1.34423 0 0
-1.49269 0.0791517 0
-1.34422 0.0785127 0
-1.34423 0 0
-1.19481 0 0
-1.34422 0.0785127 0
-1.1948 0.0778661 0
-1.19481 0 0
-1.04455 0 0
-1.1948 0.0778661 0
-1.04454 0.077388 0
-1.04455 0 0
-0.893795 0 0
-1.04454 0.077388 0
-0.893795 0.0772119 0
-0.893795 0 0
-0.743042 0 0
-0.893795 0.0772119 0
-0.743046 0.077388 0
-0.743042 0 0
-0.592782 0 0
-0.743046 0.077388 0
-0.59279 0.0778661 0
-0.592782 0 0
-0.443362 0 0
-0.59279 0.0778661 0
-0.443371 0.0785127 0
-0.443362 0 0
-0.294889 0 0
-0.443371 0.0785127 0
-0.294897 0.0791517 0
-0.294889 0 0
-0.147217 0 0
-0.294897 0.0791517 0
-0.147222 0.0796148 0
-0.147217 0 0
0 0 0
-0.147222 0.0796148 0
0 0.0797834 0
0 0 0
0.147217 0 0
0 0.0797834 0
0.147222 0.0796148 0
0.147217 0 0
0.294889 -2.62332e-24 0
0.147222 0.0796148 0
0.294897 0.0791517 0
0.294889 -2.62332e-24 0
0.443362 1.98468e-24 0
0.294897 0.0791517 0
0.443371 0.0785127 0
0.443362 1.98468e-24 0
0.592782 -9.73642e-25 0
0.443371 0.0785127 0
0.59279 0.0778661 0
0.592782 -9.73642e-25 0
0.743042 -1.38762e-24 0
0.59279 0.0778661 0
0.743046 0.077388 0
0.743042 -1.38762e-24 0
0.893795 -1.51781e-24 0
0.743046 0.077388 0
0.893795 0.0772119 0
0.893795 -1.51781e-24 0
1.04455 1.01685e-25 0
0.893795 0.0772119 0
1.04454 0.077388 0
1.04455 1.01685e-25 0
1.19481 -2.12303e-24 0
1.04454 0.077388 0
1.1948 0.0778661 0
1.19481 -2.12303e-24 0
1.34423 -1.527e-24 0
1.1948 0.0778661 0
1.34422 0.0785127 0
1.34423 -1.527e-24 0
1.4927 1.76023e-24 0
1.34422 0.0785127 0
1.49269 0.0791517 0
1.4927 1.76023e-24 0
1.64037 -7.14363e-25 0
1.49269 0.0791517 0
1.64037 0.0796148 0
1.64037 -7.14363e-25 0
1.78759 -9.00404e-25 0
1.64037 0.0796148 0
1.78759 0.0797834 0
1.78759 -9.00404e-25 0
1.93481 5.10654e-25 0
1.78759 0.0797834 0
1.93481 0.0796148 0
1.93481 5.10654e-25 0
2.08248 3.03704e-24 0
1.93481 0.0796148 0
2.08249 0.0791517 0
2.08248 3.03704e-24 0
2.23095 -3.10517e-24 0
2.08249 0.0791517 0
2.23096 0.0785127 0
2.23095 -3.10517e-24 0
2.38037 -1.82528e-24 0
2.23096 0.0785127 0
2.38038 0.0778661 0
2.38037 -1.82528e-24 0
2.53063 -1.79041e-24 0
2.38038 0.0778661 0
2.53064 0.077388 0
2.53063 -1.79041e-24 0
2.68138 6.61259e-25 0
2.53064 0.077388 0
2.68138 0.0772119 0
2.68138 6.61259e-25 0
2.83214 9.99338e-25 0
2.68138 0.0772119 0
2.83213 0.077388 0
2.83214 9.99338e-25 0
2.9824 1.28522e-24 0
2.83213 0.077388 0
2.98239 0.0778661 0
2.9824 1.28522e-24 0
3.13182 -1.8768e-24 0
2.98239 0.0778661 0
3.13181 0.0785127 0
3.13182 -1.8768e-24 0
3.28029 -2.58631e-24 0
3.13181 0.0785127 0
3.28028 0.0791517 0
3.28029 -2.58631e-24 0
3.42796 7.67773e-25 0
3.28028 0.0791517 0
3.42796 0.0796148 0
3.42796 7.67773e-25 0
3.57518 -3.01216e-24 0
3.42796 0.0796148 0
3.57518 0.0797834 0
-3.57518 0.0797834 0
-3.42796 0.0796148 0
-3.57518 0.159448 0
-3.42794 0.159127 0
-3.42796 0.0796148 0
-3.28028 0.0791517 0
-3.42794 0.159127 0
-3.28025 0.158244 0
-3.28028 0.0791517 0
-3.13181 0.0785127 0
-3.28025 0.158244 0
-3.13177 0.157025 0
-3.13181 0.0785127 0
-2.98239 0.0778661 0
-3.13177 0.157025 0
-2.98236 0.15579 0
-2.98239 0.0778661 0
-2.83213 0.077388 0
-2.98236 0.15579 0
-2.83212 0.154876 0
-2.83213 0.077388 0
-2.68138 0.0772119 0
-2.83212 0.154876 0
-2.68138 0.15454 0
-2.68138 0.0772119 0
-2.53064 0.077388 0
-2.68138 0.15454 0
-2.53065 0.154876 0
-2.53064 0.077388 0
-2.38038 0.0778661 0
-2.53065 0.154876 0
-2.38041 0.15579 0
-2.38038 0.0778661 0
-2.23096 0.0785127 0
-2.38041 0.15579 0
-2.23099 0.157025 0
-2.23096 0.0785127 0
-2.08249 0.0791517 0
-2.23099 0.157025 0
-2.08252 0.158244 0
-2.08249 0.0791517 0
-1.93481 0.0796148 0
-2.08252 0.158244 0
-1.93483 0.159127 0
-1.93481 0.0796148 0
-1.78759 0.0797834 0
-1.93483 0.159127 0
-1.78759 0.159448 0
-1.78759 0.0797834 0
-1.64037 0.0796148 0
-1.78759 0.159448 0
-1.64035 0.159127 0
-1.64037 0.0796148 0
-1.49269 0.0791517 0
-1.64035 0.159127 0
-1.49266 0.158244 0
-1.49269 0.0791517 0
-1.34422 0.0785127 0
-1.49266 0.158244 0
-1.34418 0.157025 0
-1.34422 0.0785127 0
-1.1948 0.0778661 0
-1.34418 0.157025 0
-1.19477 0.15579 0
-1.1948 0.0778661 0
-1.04454 0.077388 0
-1.19477 0.15579 0
-1.04453 0.154876 0
-1.04454 0.077388 0
-0.893795 0.0772119 0
-1.04453 0.154876 0
-0.893795 0.15454 0
-0.893795 0.0772119 0
-0.743046 0.077388 0
-0.893795 0.15454 0
-0.743062 0.154876 0
-0.743046 0.077388 0
-0.59279 0.0778661 0
-0.743062 0.154876 0
-0.592818 0.15579 0
-0.59279 0.0778661 0
-0.443371 0.0785127 0
-0.592818 0.15579 0
-0.443405 0.157025 0
-0.443371 0.0785127 0
-0.294897 0.0791517 0
-0.443405 0.157025 0
-0.294928 0.158244 0
-0.294897 0.0791517 0
-0.147222 0.0796148 0
-0.294928 0.158244 0
-0.14724 0.159127 0
-0.147222 0.0796148 0
0 0.0797834 0
-0.14724 0.159127 0
0 0.159448 0
0 0.0797834 0
0.147222 0.0796148 0
0 0.159448 0
0.14724 0.159127 0
0.147222 0.0796148 0
0.294897 0.0791517 0
0.14724 0.159127 0
0.294928 0.158244 0
0.294897 0.0791517 0
0.443371 0.0785127 0
0.294928 0.158244 0
0.443405 0.157025 0
0.443371 0.0785127 0
0.59279 0.0778661 0
0.443405 0.157025 0
0.592818 0.15579 0
0.59279 0.0778661 0
0.743046 0.077388 0
0.592818 0.15579 0
0.743062 0.154876 0
0.743046 0.077388 0
0.893795 0.0772119 0
0.743062 0.154876 0
0.893795 0.15454 0
0.893795 0.0772119 0
1.04454 0.077388 0
0.893795 0.15454 0
1.04453 0.154876 0
1.04454 0.077388 0
1.1948 0.0778661 0
1.04453 0.154876 0
1.19477 0.15579 0
1.1948 0.0778661 0
1.34422 0.0785127 0
1.19477 0.15579 0
1.34418 0.157025 0
1.34422 0.0785127 0
1.49269 0.0791517 0
1.34418 0.157025 0
1.49266 0.158244 0
1.49269 0.0791517 0
1.64037 0.0796148 0
1.49266 0.158244 0
1.64035 0.159127 0
1.64037 0.0796148 0
1.78759 0.0797834 0
1.64035 0.159127 0
1.78759 0.159448 0
1.78759 0.0797834 0
1.93481 0.0796148 0
1.78759 0.159448 0
1.93483 0.159127 0
1.93481 0.0796148 0
2.08249 0.0791517 0
1.93483 0.159127 0
2.08252 0.158244 0
2.08249 0.0791517 0
2.23096 0.0785127 0
2.08252 0.158244 0
2.23099 0.157025 0
2.23096 0.0785127 0
2.38038 0.0778661 0
2.23099 0.157025 0
2.38041 0.15579 0
2.38038 0.0778661 0
2.53064 0.077388 0
2.38041 0.15579 0
2.53065 0.154876 0
2.53064 0.077388 0
2.68138 0.0772119 0
2.53065 0.154876 0
2.68138 0.15454 0
2.68138 0.0772119 0
2.83213 0.077388 0
2.68138 0.15454 0
2.83212 0.154876 0
2.83213 0.077388 0
2.98239 0.0778661 0
2.83212 0.154876 0
2.98236 0.15579 0
2.98239 0.0778661 0
3.13181 0.0785127 0
2.98236 0.15579 0
3.13177 0.157025 0
3.13181 0.0785127 0
3.28028 0.0791517 0
3.13177 0.157025 0
3.28025 0.158244 0
3.28028 0.0791517 0
3.42796 0.0796148 0
3.28025 0.158244 0
3.42794 0.159127 0
3.42796 0.0796148 0
3.57518 0.0797834 0
3.42794 0.159127 0
3.57518 0.159448 0
-3.57518 0.159448 0
-3.42794 0.159127 0
-3.57518 0.239017 0
-3.42791 0.238556 0
-3.42794 0.159127 0
-3.28025 0.158244 0
-3.42791 0.238556 0
-3.2802 0.237288 0
-3.28025 0.158244 0
-3.13177 0.157025 0
-3.2802 0.237288 0
-3.13171 0.235536 0
-3.13177 0.157025 0
-2.98236 0.15579 0
-3.13171 0.235536 0
-2.98231 0.233761 0
-2.98236 0.15579 0
-2.83212 0.154876 0
-2.98231 0.233761 0
-2.83209 0.232446 0
-2.83212 0.154876 0
-2.68138 0.15454 0
-2.83209 0.232446 0
-2.68138 0.231962 0
-2.68138 0.15454 0
-2.53065 0.154876 0
-2.68138 0.231962 0
-2.53068 0.232446 0
-2.53065 0.154876 0
-2.38041 0.15579 0
-2.53068 0.232446 0
-2.38046 0.233761 0
-2.38041 0.15579 0
-2.23099 0.157025 0
-2.38046 0.233761 0
-2.23106 0.235536 0
-2.23099 0.157025 0
-2.08252 0.158244 0
-2.23106 0.235536 0
-2.08257 0.237288 0
-2.08252 0.158244 0
-1.93483 0.159127 0
-2.08257 0.237288 0
-1.93486 0.238556 0
-1.93483 0.159127 0
-1.78759 0.159448 0
-1.93486 0.238556 0
-1.78759 0.239017 0
-1.78759 0.159448 0
-1.64035 0.159127 0
-1.78759 0.239017 0
-1.64032 0.238556 0
-1.64035 0.159127 0
-1.49266 0.158244 0
-1.64032 0.238556 0
-1.49261 0.237288 0
-1.49266 0.158244 0
-1.34418 0.157025 0
-1.49261 0.237288 0
-1.34412 0.235536 0
-1.34418 0.157025 0
-1.19477 0.15579 0
-1.34412 0.235536 0
-1.19472 0.233761 0
-1.19477 0.15579 0
-1.04453 0.154876 0
-1.19472 0.233761 0
-1.0445 0.232446 0
-1.04453 0.154876 0
-0.893795 0.15454 0
-1.0445 0.232446 0
-0.893795 0.231962 0
-0.893795 0.15454 0
-0.743062 0.154876 0
-0.893795 0.231962 0
-0.743091 0.232446 0
-0.743062 0.154876 0
-0.592818 0.15579 0
-0.743091 0.232446 0
-0.592869 0.233761 0
-0.592818 0.15579 0
-0.443405 0.157025 0
-0.592869 0.233761 0
-0.443466 0.235536 0
-0.443405 0.157025 0
-0.294928 0.158244 0
-0.443466 0.235536 0
-0.294983 0.237288 0
-0.294928 0.158244 0
-0.14724 0.159127 0
-0.294983 0.237288 0
-0.147272 0.238556 0
-0.14724 0.159127 0
0 0.159448 0
-0.147272 0.238556 0
0 0.239017 0
0 0.159448 0
0.14724 0.159127 0
0 0.239017 0
0.147272 0.238556 0
0.14724 0.159127 0
0.294928 0.158244 0
0.147272 0.238556 0
0.294983 0.237288 0
0.294928 0.158244 0
0.443405 0.157025 0
0.294983 0.237288 0
0.443466 0.235536 0
0.443405 0.157025 0
0.592818 0.15579 0
0.443466 0.235536 0
0.592869 0.233761 0
0.592818 0.15579 0
0.743062 0.154876 0
0.592869 0.233761 0
0.743091 0.232446 0
0.743062 0.154876 0
0.893795 0.15454 0
0.743091 0.232446 0
0.893795 0.231962 0
0.893795 0.15454 0
[...]
POINT_DATA 2688
SCALARS x1_displacement double 1
LOOKUP_TABLE default
2.05689 1.96944 2.05689 1.96945 1.96944 1.88244 1.96945 1.88245 1.88244 1.79625 1.88245 1.79626 1.79625 1.711 1.79626 1.71101 1.711 1.62659 1.71101 1.62659 1.62659 1.54267 1.62659 1.54267 1.54267 1.45875 1.54267 1.45875 1.45875 1.37434 1.45875 1.37434 1.37434 1.28909 1.37434 1.28908 1.28909 1.2029 1.28908 1.20289 1.2029 1.1159 1.20289 1.11589 1.1159 1.02845 1.11589 1.02845 1.02845 0.940994 1.02845 0.941 0.940994 0.853997 0.941 0.854005 0.853997 0.7678 0.854005 0.76781 0.7678 0.682551 0.76781 0.682559 0.682551 0.598141 0.682559 0.598145 0.598141 0.514224 0.598145 0.514224 0.514224 0.430307 0.514224 0.430302 0.430307 0.345897 0.430302 0.345889 0.345897 0.260647 0.345889 0.260638 0.260647 0.174451 0.260638 0.174442 0.174451 0.0874528 0.174442 0.0874477 0.0874528 0 0.0874477 0 0 -0.0874528 0 -0.0874477 -0.0874528 -0.174451 -0.0874477 -0.174442 -0.174451 -0.260647 -0.174442 -0.260638 -0.260647 -0.345897 -0.260638 -0.345889 -0.345897 -0.430307 -0.345889 -0.430302 -0.430307 -0.514224 -0.430302 -0.514224 -0.514224 -0.598141 -0.514224 -0.598145 -0.598141 -0.682551 -0.598145 -0.682559 -0.682551 -0.7678 -0.682559 -0.76781 -0.7678 -0.853997 -0.76781 -0.854005 -0.853997 -0.940994 -0.854005 -0.941 -0.940994 -1.02845 -0.941 -1.02845 -1.02845 -1.1159 -1.02845 -1.11589 -1.1159 -1.2029 -1.11589 -1.20289 -1.2029 -1.28909 -1.20289 -1.28908 -1.28909 -1.37434 -1.28908 -1.37434 -1.37434 -1.45875 -1.37434 -1.45875 -1.45875 -1.54267 -1.45875 -1.54267 -1.54267 -1.62659 -1.54267 -1.62659 -1.62659 -1.711 -1.62659 -1.71101 -1.711 -1.79625 -1.71101 -1.79626 -1.79625 -1.88244 -1.79626 -1.88245 -1.88244 -1.96944 -1.88245 -1.96945 -1.96944 -2.05689 -1.96945 -2.05689 2.05689 1.96945 2.05689 1.96946 1.96945 1.88245 1.96946 1.88248 1.88245 1.79626 1.88248 1.79629 1.79626 1.71101 1.79629 1.71103 1.71101 1.62659 1.71103 1.62661 1.62659 1.54267 1.62661 1.54267 1.54267 1.45875 1.54267 1.45873 1.45875 1.37434 1.45873 1.37431 1.37434 1.28908 1.37431 1.28905 1.28908 1.20289 1.28905 1.20286 1.20289 1.11589 1.20286 1.11588 1.11589 1.02845 1.11588 1.02845 1.02845 0.941 1.02845 0.941018 0.941 0.854005 0.941018 0.854036 0.854005 0.76781 0.854036 0.767844 0.76781 0.682559 0.767844 0.682587 0.682559 0.598145 0.682587 0.598161 0.598145 0.514224 0.598161 0.514224 0.514224 0.430302 0.514224 0.430286 0.430302 0.345889 0.430286 0.34586 0.345889 0.260638 0.34586 0.260604 0.260638 0.174442 0.260604 0.174412 0.174442 0.0874477 0.174412 0.0874296 0.0874477 0 0.0874296 0 0 -0.0874477 0 -0.0874296 -0.0874477 -0.174442 -0.0874296 -0.174412 -0.174442 -0.260638 -0.174412 -0.260604 -0.260638 -0.345889 -0.260604 -0.34586 -0.345889 -0.430302 -0.34586 -0.430286 -0.430302 -0.514224 -0.430286 -0.514224 -0.514224 -0.598145 -0.514224 -0.598161 -0.598145 -0.682559 -0.598161 -0.682587 -0.682559 -0.76781 -0.682587 -0.767844 -0.76781 -0.854005 -0.767844 -0.854036 -0.854005 -0.941 -0.854036 -0.941018 -0.941 -1.02845 -0.941018 -1.02845 -1.02845 -1.11589 -1.02845 -1.11588 -1.11589 -1.20289 -1.11588 -1.20286 -1.20289 -1.28908 -1.20286 -1.28905 -1.28908 -1.37434 -1.28905 -1.37431 -1.37434 -1.45875 -1.37431 -1.45873 -1.45875 -1.54267 -1.45873 -1.54267 -1.54267 -1.62659 -1.54267 -1.62661 -1.62659 -1.71101 -1.62661 -1.71103 -1.71101 -1.79626 -1.71103 -1.79629 -1.79626 -1.88245 -1.79629 -1.88248 -1.88245 -1.96945 -1.88248 -1.96946 -1.96945 -2.05689 -1.96946 -2.05689 2.05689 1.96946 2.05689 1.9695 1.96946 1.88248 1.9695 1.88254 1.88248 1.79629 1.88254 1.79635 1.79629 1.71103 1.79635 1.71108 1.71103 1.62661 1.71108 1.62664 1.62661 1.54267 1.62664 1.54267 1.54267 1.45873 1.54267 1.45871 1.45873 1.37431 1.45871 1.37426 1.37431 1.28905 1.37426 1.28899 1.28905 1.20286 1.28899 1.2028 1.20286 1.11588 1.2028 1.11584 1.11588 1.02845 1.11584 1.02845 1.02845 0.941018 1.02845 0.94105 0.941018 0.854036 0.94105 0.85409 0.854036 0.767844 0.85409 0.767905 0.767844 0.682587 0.767905 0.682638 0.682587 0.598161 0.682638 0.598189 0.598161 0.514224 0.598189 0.514224 0.514224 0.430286 0.514224 0.430258 0.430286 0.34586 0.430258 0.34581 0.34586 0.260604 0.34581 0.260543 0.260604 0.174412 0.260543 0.174357 0.174412 0.0874296 0.174357 0.0873972 0.0874296 0 0.0873972 0 0 -0.0874296 0 -0.0873972 -0.0874296 -0.174412 -0.0873972 -0.174357 -0.174412 -0.260604 -0.174357 -0.260543 -0.260604 -0.34586 -0.260543 -0.34581 -0.34586 -0.430286 -0.34581 -0.430258 -0.430286 -0.514224 -0.430258 -0.514224 -0.514224 -0.598161 -0.514224 -0.598189 -0.598161 -0.682587 -0.598189 -0.682638 -0.682587 -0.767844 -0.682638 -0.767905 -0.767844 -0.854036 -0.767905 -0.85409 -0.854036 -0.941018 -0.85409 -0.94105 -0.941018 -1.02845 -0.94105 -1.02845 -1.02845 -1.11588 -1.02845 -1.11584 -1.11588 -1.20286 -1.11584 -1.2028 -1.20286 -1.28905 -1.2028 -1.28899 -1.28905 -1.37431 -1.28899 -1.37426 -1.37431 -1.45873 -1.37426 -1.45871 -1.45873 -1.54267 -1.45871 -1.54267 -1.54267 -1.62661 -1.54267 -1.62664 -1.62661 -1.71103 -1.62664 -1.71108 -1.71103 -1.79629 -1.71108 -1.79635 -1.79629 -1.88248 -1.79635 -1.88254 -1.88248 -1.96946 -1.88254 -1.9695 -1.96946 -2.05689 -1.9695 -2.05689 2.05689 1.9695 2.05689 1.96955 1.9695 1.88254 1.96955 1.88262 1.88254 1.79635 1.88262 1.79645 1.79635 1.71108 1.79645 1.71117 1.71108 1.62664 1.71117 1.62668 1.62664 1.54267 1.62668 1.54267 1.54267 1.45871 1.54267 1.45866 1.45871 1.37426 1.45866 1.37418 1.37426 1.28899 1.37418 1.28889 1.28899 1.2028 1.28889 1.20272 1.2028 1.11584 1.20272 1.11579 1.11584 1.02845 1.11579 1.02845 1.02845 0.94105 1.02845 0.941101 0.94105 0.85409 0.941101 0.854177 0.85409 0.767905 0.854177 0.768001 0.767905 0.682638 0.768001 0.682718 0.682638 0.598189 0.682718 0.598234 0.598189 0.514224 0.598234 0.514224 0.514224 0.430258 0.514224 0.430213 0.430258 0.34581 0.430213 0.345729 0.34581 0.260543 0.345729 0.260446 0.260543 0.174357 0.260446 0.17427 0.174357 0.0873972 0.17427 0.087346 0.0873972 0 0.087346 0 0 -0.0873972 0 -0.087346 -0.0873972 -0.174357 -0.087346 -0.17427 -0.174357 -0.260543 -0.17427 -0.260446 -0.260543 -0.34581 -0.260446 -0.345729 -0.34581 -0.430258 -0.345729 -0.430213 -0.430258 -0.514224 -0.430213 -0.514224 -0.514224 -0.598189 -0.514224 -0.598234 -0.598189 -0.682638 -0.598234 -0.682718 -0.682638 -0.767905 -0.682718 -0.768001 -0.767905 -0.85409 -0.768001 -0.854177 -0.85409 -0.94105 -0.854177 -0.941101 -0.94105 -1.02845 -0.941101 -1.02845 -1.02845 -1.11584 -1.02845 -1.11579 -1.11584 -1.2028 -1.11579 -1.20272 -1.2028 -1.28899 -1.20272 -1.28889 -1.28899 -1.37426 -1.28889 -1.37418 -1.37426 -1.45871 -1.37418 -1.45866 -1.45871 -1.54267 -1.45866 -1.54267 -1.54267 -1.62664 -1.54267 -1.62668 -1.62664 -1.71108 -1.62668 -1.71117 -1.71108 -1.79635 -1.71117 -1.79645 -1.79635 -1.88254 -1.79645 -1.88262 -1.88254 -1.9695 -1.88262 -1.96955 -1.9695 -2.05689 -1.96955 -2.05689 2.05689 1.96955 2.05689 1.96963 1.96955 1.88262 1.96963 1.88276 1.88262 1.79645 1.88276 1.79659 1.79645 1.71117 1.79659 1.71129 1.71117 1.62668 1.71129 1.62675 1.62668 1.54267 1.62675 1.54267 1.54267 1.45866 1.54267 1.45859 1.45866 1.37418 1.45859 1.37405 1.37418 1.28889 1.37405 1.28875 1.28889 1.20272 1.28875 1.20259 1.20272 1.11579 1.20259 1.11572 1.11579 1.02845 1.11572 1.02845 1.02845 0.941101 1.02845 0.941179 0.941101 0.854177 0.941179 0.854308 0.854177 0.768001 0.854308 0.768148 0.768001 0.682718 0.768148 0.682841 0.682718 0.598234 0.682841 0.598304 0.598234 0.514224 0.598304 0.514224 0.514224 0.430213 0.514224 0.430144 0.430213 0.345729 0.430144 0.345606 0.345729 0.260446 0.345606 0.260299 0.260446 0.17427 0.260299 0.174139 0.17427 0.087346 0.174139 0.0872687 0.087346 0 0.0872687 0 0 -0.087346 0 -0.0872687 -0.087346 -0.17427 -0.0872687 -0.174139 -0.17427 -0.260446 -0.174139 -0.260299 -0.260446 -0.345729 -0.260299 -0.345606 -0.345729 -0.430213 -0.345606 -0.430144 -0.430213 -0.514224 -0.430144 -0.514224 -0.514224 -0.598234 -0.514224 -0.598304 -0.598234 -0.682718 -0.598304 -0.682841 -0.682718 -0.768001 -0.682841 -0.768148 -0.768001 -0.854177 -0.768148 -0.854308 -0.854177 -0.941101 -0.854308 -0.941179 -0.941101 -1.02845 -0.941179 -1.02845 -1.02845 -1.11579 -1.02845 -1.11572 -1.11579 -1.20272 -1.11572 -1.20259 -1.20272 -1.28889 -1.20259 -1.28875 -1.28889 -1.37418 -1.28875 -1.37405 -1.37418 -1.45866 -1.37405 -1.45859 -1.45866 -1.54267 -1.45859 -1.54267 -1.54267 -1.62668 -1.54267 -1.62675 -1.62668 -1.71117 -1.62675 -1.71129 -1.71117 -1.79645 -1.71129 -1.79659 -1.79645 -1.88262 -1.79659 -1.88276 -1.88262 -1.96955 -1.88276 -1.96963 -1.96955 -2.05689 -1.96963 -2.05689 2.05689 1.96963 2.05689 1.96974 1.96963 1.88276 1.96974 1.88295 1.88276 1.79659 1.88295 1.79681 1.79659 1.71129 1.79681 1.71147 1.71129 1.62675 1.71147 1.62685 1.62675 1.54267 1.62685 1.54267 1.54267 1.45859 1.54267 1.45849 1.45859 1.37405 1.45849 1.37387 1.37405 1.28875 1.37387 1.28853 1.28875 1.20259 1.28853 1.20239 1.20259 1.11572 1.20239 1.1156 1.11572 1.02845 1.1156 1.02845 1.02845 0.941179 1.02845 0.941292 0.941179 0.854308 0.941292 0.854501 0.854308 0.768148 0.854501 0.768365 0.768148 0.682841 0.768365 0.683024 0.682841 0.598304 0.683024 0.598407 0.598304 0.514224 0.598407 0.514224 0.514224 0.430144 0.514224 0.43004 0.430144 0.345606 0.43004 0.345423 0.345606 0.260299 0.345423 0.260082 0.260299 0.174139 0.260082 0.173946 0.174139 0.0872687 0.173946 0.0871551 0.0872687 0 0.0871551 0 0 -0.0872687 0 -0.0871551 -0.0872687 -0.174139 -0.0871551 -0.173946 -0.174139 -0.260299 -0.173946 -0.260082 -0.260299 -0.345606 -0.260082 -0.345423 -0.345606 -0.430144 -0.345423 -0.43004 -0.430144 -0.514224 -0.43004 -0.514224 -0.514224 -0.598304 -0.514224 -0.598407 -0.598304 -0.682841 -0.598407 -0.683024 -0.682841 -0.768148 -0.683024 -0.768365 -0.768148 -0.854308 -0.768365 -0.854501 -0.854308 -0.941179 -0.854501 -0.941292 -0.941179 -1.02845 -0.941292 -1.02845 -1.02845 -1.11572 -1.02845 -1.1156 -1.11572 -1.20259 -1.1156 -1.20239 -1.20259 -1.28875 -1.20239 -1.28853 -1.28875 -1.37405 -1.28853 -1.37387 -1.37405 -1.45859 -1.37387 -1.45849 -1.45859 -1.54267 -1.45849 -1.54267 -1.54267 -1.62675 -1.54267 -1.62685 -1.62675 -1.71129 -1.62685 -1.71147 -1.71129 -1.79659 -1.71147 -1.79681 -1.79659 -1.88276 -1.79681 -1.88295 -1.88276 -1.96963 -1.88295 -1.96974 -1.96963 -2.05689 -1.96974 -2.05689 2.05689 1.96974 2.05689 1.9699 1.96974 1.88295 1.9699 1.88323 1.88295 1.79681 1.88323 1.79713 1.79681 1.71147 1.79713 1.71174 1.71147 1.62685 1.71174 1.627 1.62685 1.54267 1.627 1.54267 1.54267 1.45849 1.54267 1.45834 1.45849 1.37387 1.45834 1.37361 1.37387 1.28853 1.37361 1.28822 1.28853 1.20239 1.28822 1.20212 1.20239 1.1156 1.20212 1.11544 1.1156 1.02845 1.11544 1.02845 1.02845 0.941292 1.02845 0.941455 0.941292 0.854501 0.941455 0.854779 0.854501 0.768365 0.854779 0.768679 0.768365 0.683024 0.768679 0.683289 0.683024 0.598407 0.683289 0.598557 0.598407 0.514224 0.598557 0.514224 0.514224 0.43004 0.514224 0.42989 0.43004 0.345423 0.42989 0.345158 0.345423 0.260082 0.345158 0.259768 0.260082 0.173946 0.259768 0.173668 0.173946 0.0871551 0.173668 0.0869923 0.0871551 0 0.0869923 0 0 -0.0871551 0 -0.0869923 -0.0871551 -0.173946 -0.0869923 -0.173668 -0.173946 -0.260082 -0.173668 -0.259768 -0.260082 -0.345423 -0.259768 -0.345158 -0.345423 -0.43004 -0.345158 -0.42989 -0.43004 -0.514224 -0.42989 -0.514224 -0.514224 -0.598407 -0.514224 -0.598557 -0.598407 -0.683024 -0.598557 -0.683289 -0.683024 -0.768365 -0.683289 -0.768679 -0.768365 -0.854501 -0.768679 -0.854779 -0.854501 -0.941292 -0.854779 -0.941455 -0.941292 -1.02845 -0.941455 -1.02845 -1.02845 -1.1156 -1.02845 -1.11544 -1.1156 -1.20239 -1.11544 -1.20212 -1.20239 -1.28853 -1.20212 -1.28822 -1.28853 -1.37387 -1.28822 -1.37361 -1.37387 -1.45849 -1.37361 -1.45834 -1.45849 -1.54267 -1.45834 -1.54267 -1.54267 -1.62685 -1.54267 -1.627 -1.62685 -1.71147 -1.627 -1.71174 -1.71147 -1.79681 -1.71174 -1.79713 -1.79681 -1.88295 -1.79713 -1.88323 -1.88295 -1.96974 -1.88323 -1.9699 -1.96974 -2.05689 -1.9699 -2.05689 2.05689 1.9699 2.05689 1.97013 1.9699 1.88323 1.97013 1.88362 1.88323 1.79713 1.88362 1.79757 1.79713 1.71174 1.79757 1.71211 1.71174 1.627 1.71211 1.62722 1.627 1.54267 1.62722 1.54267 1.54267 1.45834 1.54267 1.45812 1.45834 1.37361 1.45812 1.37323 1.37361 1.28822 1.37323 1.28777 1.28822 1.20212 1.28777 1.20172 1.20212 1.11544 1.20172 1.11521 1.11544 1.02845 1.11521 1.02845 1.02845 0.941455 1.02845 0.941683 0.941455 0.854779 0.941683 0.85517 0.854779 0.768679 0.85517 0.769122 0.768679 0.683289 0.769122 0.683667 0.683289 0.598557 0.683667 0.598772 0.598557 0.514224 0.598772 0.514224 0.514224 0.42989 0.514224 0.429675 0.42989 0.345158 0.429675 0.34478 0.345158 0.259768 0.34478 0.259325 0.259768 0.173668 0.259325 0.173278 0.173668 0.0869923 0.173278 0.0867641 0.0869923 0 0.0867641 0 0 -0.0869923 0 -0.0867641 -0.0869923 -0.173668 -0.0867641 -0.173278 -0.173668 -0.259768 -0.173278 -0.259325 -0.259768 -0.345158 -0.259325 -0.34478 -0.345158 -0.42989 -0.34478 -0.429675 -0.42989 -0.514224 -0.429675 -0.514224 -0.514224 -0.598557 -0.514224 -0.598772 -0.598557 -0.683289 -0.598772 -0.683667 -0.683289 -0.768679 -0.683667 -0.769122 -0.768679 -0.854779 -0.769122 -0.85517 -0.854779 -0.941455 -0.85517 -0.941683 -0.941455 -1.02845 -0.941683 -1.02845 -1.02845 -1.11544 -1.02845 -1.11521 -1.11544 -1.20212 -1.11521 -1.20172 -1.20212 -1.28822 -1.20172 -1.28777 -1.28822 -1.37361 -1.28777 -1.37323 -1.37361 -1.45834 -1.37323 -1.45812 -1.45834 -1.54267 -1.45812 -1.54267 -1.54267 -1.627 -1.54267 -1.62722 -1.627 -1.71174 -1.62722 -1.71211 -1.71174 -1.79713 -1.71211 -1.79757 -1.79713 -1.88323 -1.79757 -1.88362 -1.88323 -1.9699 -1.88362 -1.97013 -1.9699 -2.05689 -1.97013 -2.05689 2.05689 1.97013 2.05689 1.97044 1.97013 1.88362 1.97044 1.88416 1.88362 1.79757 1.88416 1.79818 1.79757 1.71211 1.79818 1.71264 1.71211 1.62722 1.71264 1.62752 1.62722 1.54267 1.62752 1.54267 1.54267 1.45812 1.54267 1.45782 1.45812 1.37323 1.45782 1.3727 1.37323 1.28777 1.3727 1.28716 1.28777 1.20172 1.28716 1.20119 1.20172 1.11521 1.20119 1.1149 1.11521 1.02845 1.1149 1.02845 1.02845 0.941683 1.02845 0.941996 0.941683 0.85517 0.941996 0.855708 0.85517 0.769122 0.855708 0.769737 0.769122 0.683667 0.769737 0.684193 0.683667 0.598772 0.684193 0.599073 0.598772 0.514224 0.599073 0.514224 0.514224 0.429675 0.514224 0.429374 0.429675 0.34478 0.429374 0.344254 0.34478 0.259325 0.344254 0.25871 0.259325 0.173278 0.25871 0.172739 0.173278 0.0867641 0.172739 0.086451 0.0867641 0 0.086451 0 0 -0.0867641 0 -0.086451 -0.0867641 -0.173278 -0.086451 -0.172739 -0.173278 -0.259325 -0.172739 -0.25871 -0.259325 -0.34478 -0.25871 -0.344254 -0.34478 -0.429675 -0.344254 -0.429374 -0.429675 -0.514224 -0.429374 -0.514224 -0.514224 -0.598772 -0.514224 -0.599073 -0.598772 -0.683667 -0.599073 -0.684193 -0.683667 -0.769122 -0.684193 -0.769737 -0.769122 -0.85517 -0.769737 -0.855708 -0.85517 -0.941683 -0.855708 -0.941996 -0.941683 -1.02845 -0.941996 -1.02845 -1.02845 -1.11521 -1.02845 -1.1149 -1.11521 -1.20172 -1.1149 -1.20119 -1.20172 -1.28777 -1.20119 -1.28716 -1.28777 -1.37323 -1.28716 -1.3727 -1.37323 -1.45812 -1.3727 -1.45782 -1.45812 -1.54267 -1.45782 -1.54267 -1.54267 -1.62722 -1.54267 -1.62752 -1.62722 -1.71211 -1.62752 -1.71264 -1.71211 -1.79757 -1.71264 -1.79818 -1.79757 -1.88362 -1.79818 -1.88416 -1.88362 -1.97013 -1.88416 -1.97044 -1.97013 -2.05689 -1.97044 -2.05689 2.05689 1.97044 2.05689 1.97086 1.97044 1.88416 1.97086 1.88488 1.88416 1.79818 1.88488 1.79902 1.79818 1.71264 1.79902 1.71336 1.71264 1.62752 1.71336 1.62793 1.62752 1.54267 1.62793 1.54267 1.54267 1.45782 1.54267 1.45741 1.45782 1.3727 1.45741 1.37198 1.3727 1.28716 1.37198 1.28632 1.28716 1.20119 1.28632 1.20046 1.20119 1.1149 1.20046 1.11448 1.1149 1.02845 1.11448 1.02845 1.02845 0.941996 1.02845 0.942418 0.941996 0.855708 0.942418 0.856436 0.855708 0.769737 0.856436 0.770574 0.769737 0.684193 0.770574 0.684913 0.684193 0.599073 0.684913 0.599487 0.599073 0.514224 0.599487 0.514224 0.514224 0.429374 0.514224 0.42896 0.429374 0.344254 0.42896 0.343534 0.344254 0.25871 0.343534 0.257873 0.25871 0.172739 0.257873 0.172011 0.172739 0.086451 0.172011 0.0860295 0.086451 0 0.0860295 0 0 -0.086451 0 -0.0860295 -0.086451 -0.172739 -0.0860295 -0.172011 -0.172739 -0.25871 -0.172011 -0.257873 -0.25871 -0.344254 -0.257873 -0.343534 -0.344254 -0.429374 -0.343534 -0.42896 -0.429374 -0.514224 -0.42896 -0.514224 -0.514224 -0.599073 -0.514224 -0.599487 -0.599073 -0.684193 -0.599487 -0.684913 -0.684193 -0.769737 -0.684913 -0.770574 -0.769737 -0.855708 -0.770574 -0.856436 -0.855708 -0.941996 -0.856436 -0.942418 -0.941996 -1.02845 -0.942418 -1.02845 -1.02845 -1.1149 -1.02845 -1.11448 -1.1149 -1.20119 -1.11448 -1.20046 -1.20119 -1.28716 -1.20046 -1.28632 -1.28716 -1.3727 -1.28632 -1.37198 -1.3727 -1.45782 -1.37198 -1.45741 -1.45782 -1.54267 -1.45741 -1.54267 -1.54267 -1.62752 -1.54267 -1.62793 -1.62752 -1.71264 -1.62793 -1.71336 -1.71264 -1.79818 -1.71336 -1.79902 -1.79818 -1.88416 -1.79902 -1.88488 -1.88416 -1.97044 -1.88488 -1.97086 -1.97044 -2.05689 -1.97086 -2.05689 2.05689 1.97086 2.05689 1.97142 1.97086 1.88488 1.97142 1.88585 1.88488 1.79902 1.88585 1.80014 1.79902 1.71336 1.80014 1.71433 1.71336 1.62793 1.71433 1.6285 1.62793 1.54267 1.6285 1.54267 1.54267 1.45741 1.54267 1.45685 1.45741 1.37198 1.45685 1.37101 1.37198 1.28632 1.37101 1.2852 1.28632 1.20046 1.2852 1.19949 1.20046 1.11448 1.19949 1.11392 1.11448 1.02845 1.11392 1.02845 1.02845 0.942418 1.02845 0.942975 0.942418 0.856436 0.942975 0.857404 0.856436 0.770574 0.857404 0.771695 0.770574 0.684913 0.771695 0.685885 0.684913 0.599487 0.685885 0.600048 0.599487 0.514224 0.600048 0.514224 0.514224 0.42896 0.514224 0.428399 0.42896 0.343534 0.428399 0.342562 0.343534 0.257873 0.342562 0.256752 0.257873 0.172011 0.256752 0.171043 0.172011 0.0860295 0.171043 0.085472 0.0860295 0 0.085472 0 0 -0.0860295 0 -0.085472 -0.0860295 -0.172011 -0.085472 -0.171043 -0.172011 -0.257873 -0.171043 -0.256752 -0.257873 -0.343534 -0.256752 -0.342562 -0.343534 -0.42896 -0.342562 -0.428399 -0.42896 -0.514224 -0.428399 -0.514224 -0.514224 -0.599487 -0.514224 -0.600048 -0.599487 -0.684913 -0.600048 -0.685885 -0.684913 -0.770574 -0.685885 -0.771695 -0.770574 -0.856436 -0.771695 -0.857404 -0.856436 -0.942418 -0.857404 -0.942975 -0.942418 -1.02845 -0.942975 -1.02845 -1.02845 -1.11448 -1.02845 -1.11392 -1.11448 -1.20046 -1.11392 -1.19949 -1.20046 -1.28632 -1.19949 -1.2852 -1.28632 -1.37198 -1.2852 -1.37101 -1.37198 -1.45741 -1.37101 -1.45685 -1.45741 -1.54267 -1.45685 -1.54267 -1.54267 -1.62793 -1.54267 -1.6285 -1.62793 -1.71336 -1.6285 -1.71433 -1.71336 -1.79902 -1.71433 -1.80014 -1.79902 -1.88488 -1.80014 -1.88585 -1.88488 -1.97086 -1.88585 -1.97142 -1.97086 -2.05689 -1.97142 -2.05689 2.05689 1.97142 2.05689 1.97215 1.97142 1.88585 1.97215 1.88712 1.88585 1.80014 1.88712 1.80162 1.80014 1.71433 1.80162 1.71563 1.71433 1.6285 1.71563 1.62925 1.6285 1.54267 1.62925 1.54267 1.54267 1.45685 1.54267 1.45609 1.45685 1.37101 1.45609 1.36971 1.37101 1.2852 1.36971 1.28372 1.2852 1.19949 1.28372 1.19822 1.19949 1.11392 1.19822 1.11319 1.11392 1.02845 1.11319 1.02845 1.02845 0.942975 1.02845 0.943701 0.942975 0.857404 0.943701 0.858672 0.857404 0.771695 0.858672 0.773176 0.771695 0.685885 0.773176 0.687182 0.685885 0.600048 0.687182 0.600803 0.600048 0.514224 0.600803 0.514224 0.514224 0.428399 0.514224 0.427644 0.428399 0.342562 0.427644 0.341265 0.342562 0.256752 0.341265 0.255271 0.256752 0.171043 0.255271 0.169775 0.171043 0.085472 0.169775 0.0847466 0.085472 0 0.0847466 0 0 -0.085472 0 -0.0847466 -0.085472 -0.171043 -0.0847466 -0.169775 -0.171043 -0.256752 -0.169775 -0.255271 -0.256752 -0.342562 -0.255271 -0.341265 -0.342562 -0.428399 -0.341265 -0.427644 -0.428399 -0.514224 -0.427644 -0.514224 -0.514224 -0.600048 -0.514224 -0.600803 -0.600048 -0.685885 -0.600803 -0.687182 -0.685885 -0.771695 -0.687182 -0.773176 -0.771695 -0.857404 -0.773176 -0.858672 -0.857404 -0.942975 -0.858672 -0.943701 -0.942975 -1.02845 -0.943701 -1.02845 -1.02845 -1.11392 -1.02845 -1.11319 -1.11392 -1.19949 -1.11319 -1.19822 -1.19949 -1.2852 -1.19822 -1.28372 -1.2852 -1.37101 -1.28372 -1.36971 -1.37101 -1.45685 -1.36971 -1.45609 -1.4