# vtk DataFile Version 3.0
#This file was generated by the deal.II library on 2017/9/27 at 13:14:02
ASCII
DATASET UNSTRUCTURED_GRID

POINTS 2688 double
-3.57687 -1.77777e-23 0
-3.4376 0 0
-3.57687 0.0860051 0
-3.43756 0.0851133 0
-3.4376 0 0
-3.29614 0 0
-3.43756 0.0851133 0
-3.29608 0.0825938 0
-3.29614 0 0
-3.15052 0 0
-3.29608 0.0825938 0
-3.15046 0.0789448 0
-3.15052 0 0
-2.99939 0 0
-3.15046 0.0789448 0
-2.99935 0.0750362 0
-2.99939 0 0
-2.84278 0 0
-2.99935 0.0750362 0
-2.84276 0.0719954 0
-2.84278 0 0
-2.68265 0 0
-2.84276 0.0719954 0
-2.68265 0.0708418 0
-2.68265 0 0
-2.52252 0 0
-2.68265 0.0708418 0
-2.52254 0.0719954 0
-2.52252 0 0
-2.36591 0 0
-2.52254 0.0719954 0
-2.36595 0.0750362 0
-2.36591 0 0
-2.21478 0 0
-2.36595 0.0750362 0
-2.21484 0.0789448 0
-2.21478 0 0
-2.06915 0 0
-2.21484 0.0789448 0
-2.06922 0.0825938 0
-2.06915 0 0
-1.9277 0 0
-2.06922 0.0825938 0
-1.92774 0.0851133 0
-1.9277 0 0
-1.78843 0 0
-1.92774 0.0851133 0
-1.78843 0.0860051 0
-1.78843 0 0
-1.64917 0 0
-1.78843 0.0860051 0
-1.64913 0.0851133 0
-1.64917 0 0
-1.50771 0 0
-1.64913 0.0851133 0
-1.50765 0.0825938 0
-1.50771 0 0
-1.36209 0 0
-1.50765 0.0825938 0
-1.36203 0.0789448 0
-1.36209 0 0
-1.21096 0 0
-1.36203 0.0789448 0
-1.21092 0.0750362 0
-1.21096 0 0
-1.05435 0 0
-1.21092 0.0750362 0
-1.05433 0.0719954 0
-1.05435 0 0
-0.894216 0 0
-1.05433 0.0719954 0
-0.894216 0.0708418 0
-0.894216 0 0
-0.734086 0 0
-0.894216 0.0708418 0
-0.734105 0.0719954 0
-0.734086 0 0
-0.577476 0 0
-0.734105 0.0719954 0
-0.577517 0.0750362 0
-0.577476 0 0
-0.426347 0 0
-0.577517 0.0750362 0
-0.426408 0.0789448 0
-0.426347 0 0
-0.280721 0 0
-0.426408 0.0789448 0
-0.280785 0.0825938 0
-0.280721 0 0
-0.139266 0 0
-0.280785 0.0825938 0
-0.139307 0.0851133 0
-0.139266 0 0
0 0 0
-0.139307 0.0851133 0
0 0.0860051 0
0 0 0
0.139266 0 0
0 0.0860051 0
0.139307 0.0851133 0
0.139266 0 0
0.280721 -1.54827e-23 0
0.139307 0.0851133 0
0.280785 0.0825938 0
0.280721 -1.54827e-23 0
0.426347 1.17135e-23 0
0.280785 0.0825938 0
0.426408 0.0789448 0
0.426347 1.17135e-23 0
0.577476 -5.7464e-24 0
0.426408 0.0789448 0
0.577517 0.0750362 0
0.577476 -5.7464e-24 0
0.734086 -8.18968e-24 0
0.577517 0.0750362 0
0.734105 0.0719954 0
0.734086 -8.18968e-24 0
0.894216 -8.95807e-24 0
0.734105 0.0719954 0
0.894216 0.0708418 0
0.894216 -8.95807e-24 0
1.05435 6.00142e-25 0
0.894216 0.0708418 0
1.05433 0.0719954 0
1.05435 6.00142e-25 0
1.21096 -1.253e-23 0
1.05433 0.0719954 0
1.21092 0.0750362 0
1.21096 -1.253e-23 0
1.36209 -9.01229e-24 0
1.21092 0.0750362 0
1.36203 0.0789448 0
1.36209 -9.01229e-24 0
1.50771 1.03888e-23 0
1.36203 0.0789448 0
1.50765 0.0825938 0
1.50771 1.03888e-23 0
1.64917 -4.21614e-24 0
1.50765 0.0825938 0
1.64913 0.0851133 0
1.64917 -4.21614e-24 0
1.78843 -5.31415e-24 0
1.64913 0.0851133 0
1.78843 0.0860051 0
1.78843 -5.31415e-24 0
1.9277 3.01386e-24 0
1.78843 0.0860051 0
1.92774 0.0851133 0
1.9277 3.01386e-24 0
2.06915 1.79245e-23 0
1.92774 0.0851133 0
2.06922 0.0825938 0
2.06915 1.79245e-23 0
2.21478 -1.83266e-23 0
2.06922 0.0825938 0
2.21484 0.0789448 0
2.21478 -1.83266e-23 0
2.36591 -1.07727e-23 0
2.21484 0.0789448 0
2.36595 0.0750362 0
2.36591 -1.07727e-23 0
2.52252 -1.05669e-23 0
2.36595 0.0750362 0
2.52254 0.0719954 0
2.52252 -1.05669e-23 0
2.68265 3.90272e-24 0
2.52254 0.0719954 0
2.68265 0.0708418 0
2.68265 3.90272e-24 0
2.84278 5.89805e-24 0
2.68265 0.0708418 0
2.84276 0.0719954 0
2.84278 5.89805e-24 0
2.99939 7.58534e-24 0
2.84276 0.0719954 0
2.99935 0.0750362 0
2.99939 7.58534e-24 0
3.15052 -1.10768e-23 0
2.99935 0.0750362 0
3.15046 0.0789448 0
3.15052 -1.10768e-23 0
3.29614 -1.52643e-23 0
3.15046 0.0789448 0
3.29608 0.0825938 0
3.29614 -1.52643e-23 0
3.4376 4.53136e-24 0
3.29608 0.0825938 0
3.43756 0.0851133 0
3.4376 4.53136e-24 0
3.57687 -1.77777e-23 0
3.43756 0.0851133 0
3.57687 0.0860051 0
-3.57687 0.0860051 0
-3.43756 0.0851133 0
-3.57687 0.17128 0
-3.43742 0.169591 0
-3.43756 0.0851133 0
-3.29608 0.0825938 0
-3.43742 0.169591 0
-3.29586 0.16481 0
-3.29608 0.0825938 0
-3.15046 0.0789448 0
-3.29586 0.16481 0
-3.15024 0.157863 0
-3.15046 0.0789448 0
-2.99935 0.0750362 0
-3.15024 0.157863 0
-2.9992 0.15039 0
-2.99935 0.0750362 0
-2.84276 0.0719954 0
-2.9992 0.15039 0
-2.8427 0.144553 0
-2.84276 0.0719954 0
-2.68265 0.0708418 0
-2.8427 0.144553 0
-2.68265 0.142333 0
-2.68265 0.0708418 0
-2.52254 0.0719954 0
-2.68265 0.142333 0
-2.5226 0.144553 0
-2.52254 0.0719954 0
-2.36595 0.0750362 0
-2.5226 0.144553 0
-2.3661 0.15039 0
-2.36595 0.0750362 0
-2.21484 0.0789448 0
-2.3661 0.15039 0
-2.21506 0.157863 0
-2.21484 0.0789448 0
-2.06922 0.0825938 0
-2.21506 0.157863 0
-2.06944 0.16481 0
-2.06922 0.0825938 0
-1.92774 0.0851133 0
-2.06944 0.16481 0
-1.92788 0.169591 0
-1.92774 0.0851133 0
-1.78843 0.0860051 0
-1.92788 0.169591 0
-1.78843 0.17128 0
-1.78843 0.0860051 0
-1.64913 0.0851133 0
-1.78843 0.17128 0
-1.64898 0.169591 0
-1.64913 0.0851133 0
-1.50765 0.0825938 0
-1.64898 0.169591 0
-1.50742 0.16481 0
-1.50765 0.0825938 0
-1.36203 0.0789448 0
-1.50742 0.16481 0
-1.36181 0.157863 0
-1.36203 0.0789448 0
-1.21092 0.0750362 0
-1.36181 0.157863 0
-1.21077 0.15039 0
-1.21092 0.0750362 0
-1.05433 0.0719954 0
-1.21077 0.15039 0
-1.05426 0.144553 0
-1.05433 0.0719954 0
-0.894216 0.0708418 0
-1.05426 0.144553 0
-0.894216 0.142333 0
-0.894216 0.0708418 0
-0.734105 0.0719954 0
-0.894216 0.142333 0
-0.734171 0.144553 0
-0.734105 0.0719954 0
-0.577517 0.0750362 0
-0.734171 0.144553 0
-0.577664 0.15039 0
-0.577517 0.0750362 0
-0.426408 0.0789448 0
-0.577664 0.15039 0
-0.426624 0.157863 0
-0.426408 0.0789448 0
-0.280785 0.0825938 0
-0.426624 0.157863 0
-0.281008 0.16481 0
-0.280785 0.0825938 0
-0.139307 0.0851133 0
-0.281008 0.16481 0
-0.139449 0.169591 0
-0.139307 0.0851133 0
0 0.0860051 0
-0.139449 0.169591 0
0 0.17128 0
0 0.0860051 0
0.139307 0.0851133 0
0 0.17128 0
0.139449 0.169591 0
0.139307 0.0851133 0
0.280785 0.0825938 0
0.139449 0.169591 0
0.281008 0.16481 0
0.280785 0.0825938 0
0.426408 0.0789448 0
0.281008 0.16481 0
0.426624 0.157863 0
0.426408 0.0789448 0
0.577517 0.0750362 0
0.426624 0.157863 0
0.577664 0.15039 0
0.577517 0.0750362 0
0.734105 0.0719954 0
0.577664 0.15039 0
0.734171 0.144553 0
0.734105 0.0719954 0
0.894216 0.0708418 0
0.734171 0.144553 0
0.894216 0.142333 0
0.894216 0.0708418 0
1.05433 0.0719954 0
0.894216 0.142333 0
1.05426 0.144553 0
1.05433 0.0719954 0
1.21092 0.0750362 0
1.05426 0.144553 0
1.21077 0.15039 0
1.21092 0.0750362 0
1.36203 0.0789448 0
1.21077 0.15039 0
1.36181 0.157863 0
1.36203 0.0789448 0
1.50765 0.0825938 0
1.36181 0.157863 0
1.50742 0.16481 0
1.50765 0.0825938 0
1.64913 0.0851133 0
1.50742 0.16481 0
1.64898 0.169591 0
1.64913 0.0851133 0
1.78843 0.0860051 0
1.64898 0.169591 0
1.78843 0.17128 0
1.78843 0.0860051 0
1.92774 0.0851133 0
1.78843 0.17128 0
1.92788 0.169591 0
1.92774 0.0851133 0
2.06922 0.0825938 0
1.92788 0.169591 0
2.06944 0.16481 0
2.06922 0.0825938 0
2.21484 0.0789448 0
2.06944 0.16481 0
2.21506 0.157863 0
2.21484 0.0789448 0
2.36595 0.0750362 0
2.21506 0.157863 0
2.3661 0.15039 0
2.36595 0.0750362 0
2.52254 0.0719954 0
2.3661 0.15039 0
2.5226 0.144553 0
2.52254 0.0719954 0
2.68265 0.0708418 0
2.5226 0.144553 0
2.68265 0.142333 0
2.68265 0.0708418 0
2.84276 0.0719954 0
2.68265 0.142333 0
2.8427 0.144553 0
2.84276 0.0719954 0
2.99935 0.0750362 0
2.8427 0.144553 0
2.9992 0.15039 0
2.99935 0.0750362 0
3.15046 0.0789448 0
2.9992 0.15039 0
3.15024 0.157863 0
3.15046 0.0789448 0
3.29608 0.0825938 0
3.15024 0.157863 0
3.29586 0.16481 0
3.29608 0.0825938 0
3.43756 0.0851133 0
3.29586 0.16481 0
3.43742 0.169591 0
3.43756 0.0851133 0
3.57687 0.0860051 0
3.43742 0.169591 0
3.57687 0.17128 0
-3.57687 0.17128 0
-3.43742 0.169591 0
-3.57687 0.255941 0
-3.43716 0.253539 0
-3.43742 0.169591 0
-3.29586 0.16481 0
-3.43716 0.253539 0
-3.29546 0.246723 0
-3.29586 0.16481 0
-3.15024 0.157863 0
-3.29546 0.246723 0
-3.14985 0.236775 0
-3.15024 0.157863 0
-2.9992 0.15039 0
-3.14985 0.236775 0
-2.99894 0.226014 0
-2.9992 0.15039 0
-2.8427 0.144553 0
-2.99894 0.226014 0
-2.84258 0.217563 0
-2.8427 0.144553 0
-2.68265 0.142333 0
-2.84258 0.217563 0
-2.68265 0.214338 0
-2.68265 0.142333 0
-2.5226 0.144553 0
-2.68265 0.214338 0
-2.52272 0.217563 0
-2.5226 0.144553 0
-2.3661 0.15039 0
-2.52272 0.217563 0
-2.36636 0.226014 0
-2.3661 0.15039 0
-2.21506 0.157863 0
-2.36636 0.226014 0
-2.21544 0.236775 0
-2.21506 0.157863 0
-2.06944 0.16481 0
-2.21544 0.236775 0
-2.06984 0.246723 0
-2.06944 0.16481 0
-1.92788 0.169591 0
-2.06984 0.246723 0
-1.92814 0.253539 0
-1.92788 0.169591 0
-1.78843 0.17128 0
-1.92814 0.253539 0
-1.78843 0.255941 0
-1.78843 0.17128 0
-1.64898 0.169591 0
-1.78843 0.255941 0
-1.64873 0.253539 0
-1.64898 0.169591 0
-1.50742 0.16481 0
-1.64873 0.253539 0
-1.50702 0.246723 0
-1.50742 0.16481 0
-1.36181 0.157863 0
-1.50702 0.246723 0
-1.36142 0.236775 0
-1.36181 0.157863 0
-1.21077 0.15039 0
-1.36142 0.236775 0
-1.21051 0.226014 0
-1.21077 0.15039 0
-1.05426 0.144553 0
-1.21051 0.226014 0
-1.05415 0.217563 0
-1.05426 0.144553 0
-0.894216 0.142333 0
-1.05415 0.217563 0
-0.894216 0.214338 0
-0.894216 0.142333 0
-0.734171 0.144553 0
-0.894216 0.214338 0
-0.734286 0.217563 0
-0.734171 0.144553 0
-0.577664 0.15039 0
-0.734286 0.217563 0
-0.577926 0.226014 0
-0.577664 0.15039 0
-0.426624 0.157863 0
-0.577926 0.226014 0
-0.427012 0.236775 0
-0.426624 0.157863 0
-0.281008 0.16481 0
-0.427012 0.236775 0
-0.281408 0.246723 0
-0.281008 0.16481 0
-0.139449 0.169591 0
-0.281408 0.246723 0
-0.139705 0.253539 0
-0.139449 0.169591 0
0 0.17128 0
-0.139705 0.253539 0
0 0.255941 0
0 0.17128 0
0.139449 0.169591 0
0 0.255941 0
0.139705 0.253539 0
0.139449 0.169591 0
0.281008 0.16481 0
0.139705 0.253539 0
0.281408 0.246723 0
0.281008 0.16481 0
0.426624 0.157863 0
0.281408 0.246723 0
0.427012 0.236775 0
0.426624 0.157863 0
0.577664 0.15039 0
0.427012 0.236775 0
0.577926 0.226014 0
0.577664 0.15039 0
0.734171 0.144553 0
0.577926 0.226014 0
0.734286 0.217563 0
0.734171 0.144553 0
0.894216 0.142333 0
0.734286 0.217563 0
0.894216 0.214338 0
[...]
POINT_DATA 2688
SCALARS x1_displacement double 1
LOOKUP_TABLE default
2.05521 1.9598 2.05521 1.95984 1.9598 1.86659 1.95984 1.86665 1.86659 1.77754 1.86665 1.77761 1.77754 1.694 1.77761 1.69405 1.694 1.61594 1.69405 1.61596 1.61594 1.54141 1.61596 1.54141 1.54141 1.46687 1.54141 1.46685 1.46687 1.38881 1.46685 1.38876 1.38881 1.30527 1.38876 1.3052 1.30527 1.21622 1.3052 1.21616 1.21622 1.12301 1.21616 1.12297 1.12301 1.0276 1.12297 1.0276 1.0276 0.9322 1.0276 0.93224 0.9322 0.838985 0.93224 0.839049 0.838985 0.749941 0.839049 0.750002 0.749941 0.6664 0.750002 0.666442 0.6664 0.588341 0.666442 0.58836 0.588341 0.513802 0.58836 0.513802 0.513802 0.439262 0.513802 0.439244 0.439262 0.361203 0.439244 0.361162 0.361203 0.277663 0.361162 0.277601 0.277663 0.188618 0.277601 0.188554 0.188618 0.0954038 0.188554 0.0953629 0.0954038 0 0.0953629 0 0 -0.0954038 0 -0.0953629 -0.0954038 -0.188618 -0.0953629 -0.188554 -0.188618 -0.277663 -0.188554 -0.277601 -0.277663 -0.361203 -0.277601 -0.361162 -0.361203 -0.439262 -0.361162 -0.439244 -0.439262 -0.513802 -0.439244 -0.513802 -0.513802 -0.588341 -0.513802 -0.58836 -0.588341 -0.6664 -0.58836 -0.666442 -0.6664 -0.749941 -0.666442 -0.750002 -0.749941 -0.838985 -0.750002 -0.839049 -0.838985 -0.9322 -0.839049 -0.93224 -0.9322 -1.0276 -0.93224 -1.0276 -1.0276 -1.12301 -1.0276 -1.12297 -1.12301 -1.21622 -1.12297 -1.21616 -1.21622 -1.30527 -1.21616 -1.3052 -1.30527 -1.38881 -1.3052 -1.38876 -1.38881 -1.46687 -1.38876 -1.46685 -1.46687 -1.54141 -1.46685 -1.54141 -1.54141 -1.61594 -1.54141 -1.61596 -1.61594 -1.694 -1.61596 -1.69405 -1.694 -1.77754 -1.69405 -1.77761 -1.77754 -1.86659 -1.77761 -1.86665 -1.86659 -1.9598 -1.86665 -1.95984 -1.9598 -2.05521 -1.95984 -2.05521 2.05521 1.95984 2.05521 1.95999 1.95984 1.86665 1.95999 1.86688 1.86665 1.77761 1.86688 1.77782 1.77761 1.69405 1.77782 1.69419 1.69405 1.61596 1.69419 1.61603 1.61596 1.54141 1.61603 1.54141 1.54141 1.46685 1.54141 1.46678 1.46685 1.38876 1.46678 1.38862 1.38876 1.3052 1.38862 1.30499 1.3052 1.21616 1.30499 1.21593 1.21616 1.12297 1.21593 1.12282 1.12297 1.0276 1.12282 1.0276 1.0276 0.93224 1.0276 0.932383 0.93224 0.839049 0.932383 0.839272 0.839049 0.750002 0.839272 0.750219 0.750002 0.666442 0.750219 0.666589 0.666442 0.58836 0.666589 0.588425 0.58836 0.513802 0.588425 0.513802 0.513802 0.439244 0.513802 0.439178 0.439244 0.361162 0.439178 0.361014 0.361162 0.277601 0.361014 0.277385 0.277601 0.188554 0.277385 0.188331 0.188554 0.0953629 0.188331 0.0952203 0.0953629 0 0.0952203 0 0 -0.0953629 0 -0.0952203 -0.0953629 -0.188554 -0.0952203 -0.188331 -0.188554 -0.277601 -0.188331 -0.277385 -0.277601 -0.361162 -0.277385 -0.361014 -0.361162 -0.439244 -0.361014 -0.439178 -0.439244 -0.513802 -0.439178 -0.513802 -0.513802 -0.58836 -0.513802 -0.588425 -0.58836 -0.666442 -0.588425 -0.666589 -0.666442 -0.750002 -0.666589 -0.750219 -0.750002 -0.839049 -0.750219 -0.839272 -0.839049 -0.93224 -0.839272 -0.932383 -0.93224 -1.0276 -0.932383 -1.0276 -1.0276 -1.12297 -1.0276 -1.12282 -1.12297 -1.21616 -1.12282 -1.21593 -1.21616 -1.3052 -1.21593 -1.30499 -1.3052 -1.38876 -1.30499 -1.38862 -1.38876 -1.46685 -1.38862 -1.46678 -1.46685 -1.54141 -1.46678 -1.54141 -1.54141 -1.61596 -1.54141 -1.61603 -1.61596 -1.69405 -1.61603 -1.69419 -1.69405 -1.77761 -1.69419 -1.77782 -1.77761 -1.86665 -1.77782 -1.86688 -1.86665 -1.95984 -1.86688 -1.95999 -1.95984 -2.05521 -1.95999 -2.05521 2.05521 1.95999 2.05521 1.96024 1.95999 1.86688 1.96024 1.86728 1.86688 1.77782 1.86728 1.77821 1.77782 1.69419 1.77821 1.69445 1.69419 1.61603 1.69445 1.61614 1.61603 1.54141 1.61614 1.54141 1.54141 1.46678 1.54141 1.46667 1.46678 1.38862 1.46667 1.38836 1.38862 1.30499 1.38836 1.3046 1.30499 1.21593 1.3046 1.21553 1.21593 1.12282 1.21553 1.12257 1.12282 1.0276 1.12257 1.0276 1.0276 0.932383 1.0276 0.932638 0.932383 0.839272 0.932638 0.839672 0.839272 0.750219 0.839672 0.750606 0.750219 0.666589 0.750606 0.66685 0.666589 0.588425 0.66685 0.588541 0.588425 0.513802 0.588541 0.513802 0.513802 0.439178 0.513802 0.439062 0.439178 0.361014 0.439062 0.360753 0.361014 0.277385 0.360753 0.276998 0.277385 0.188331 0.276998 0.187931 0.188331 0.0952203 0.187931 0.0949651 0.0952203 0 0.0949651 0 0 -0.0952203 0 -0.0949651 -0.0952203 -0.188331 -0.0949651 -0.187931 -0.188331 -0.277385 -0.187931 -0.276998 -0.277385 -0.361014 -0.276998 -0.360753 -0.361014 -0.439178 -0.360753 -0.439062 -0.439178 -0.513802 -0.439062 -0.513802 -0.513802 -0.588425 -0.513802 -0.588541 -0.588425 -0.666589 -0.588541 -0.66685 -0.666589 -0.750219 -0.66685 -0.750606 -0.750219 -0.839272 -0.750606 -0.839672 -0.839272 -0.932383 -0.839672 -0.932638 -0.932383 -1.0276 -0.932638 -1.0276 -1.0276 -1.12282 -1.0276 -1.12257 -1.12282 -1.21593 -1.12257 -1.21553 -1.21593 -1.30499 -1.21553 -1.3046 -1.30499 -1.38862 -1.3046 -1.38836 -1.38862 -1.46678 -1.38836 -1.46667 -1.46678 -1.54141 -1.46667 -1.54141 -1.54141 -1.61603 -1.54141 -1.61614 -1.61603 -1.69419 -1.61614 -1.69445 -1.69419 -1.77782 -1.69445 -1.77821 -1.77782 -1.86688 -1.77821 -1.86728 -1.86688 -1.95999 -1.86728 -1.96024 -1.95999 -2.05521 -1.96024 -2.05521 2.05521 1.96024 2.05521 1.96064 1.96024 1.86728 1.96064 1.8679 1.86728 1.77821 1.8679 1.77882 1.77821 1.69445 1.77882 1.69487 1.69445 1.61614 1.69487 1.61633 1.61614 1.54141 1.61633 1.54141 1.54141 1.46667 1.54141 1.46648 1.46667 1.38836 1.46648 1.38794 1.38836 1.3046 1.38794 1.30399 1.3046 1.21553 1.30399 1.21491 1.21553 1.12257 1.21491 1.12217 1.12257 1.0276 1.12217 1.0276 1.0276 0.932638 1.0276 0.933035 0.932638 0.839672 0.933035 0.840297 0.839672 0.750606 0.840297 0.751217 0.750606 0.66685 0.751217 0.667268 0.66685 0.588541 0.667268 0.588728 0.588541 0.513802 0.588728 0.513802 0.513802 0.439062 0.513802 0.438875 0.439062 0.360753 0.438875 0.360335 0.360753 0.276998 0.360335 0.276386 0.276998 0.187931 0.276386 0.187306 0.187931 0.0949651 0.187306 0.0945687 0.0949651 0 0.0945687 0 0 -0.0949651 0 -0.0945687 -0.0949651 -0.187931 -0.0945687 -0.187306 -0.187931 -0.276998 -0.187306 -0.276386 -0.276998 -0.360753 -0.276386 -0.360335 -0.360753 -0.439062 -0.360335 -0.438875 -0.439062 -0.513802 -0.438875 -0.513802 -0.513802 -0.588541 -0.513802 -0.588728 -0.588541 -0.66685 -0.588728 -0.667268 -0.66685 -0.750606 -0.667268 -0.751217 -0.750606 -0.839672 -0.751217 -0.840297 -0.839672 -0.932638 -0.840297 -0.933035 -0.932638 -1.0276 -0.933035 -1.0276 -1.0276 -1.12257 -1.0276 -1.12217 -1.12257 -1.21553 -1.12217 -1.21491 -1.21553 -1.3046 -1.21491 -1.30399 -1.3046 -1.38836 -1.30399 -1.38794 -1.38836 -1.46667 -1.38794 -1.46648 -1.46667 -1.54141 -1.46648 -1.54141 -1.54141 -1.61614 -1.54141 -1.61633 -1.61614 -1.69445 -1.61633 -1.69487 -1.69445 -1.77821 -1.69487 -1.77882 -1.77821 -1.86728 -1.77882 -1.8679 -1.86728 -1.96024 -1.8679 -1.96064 -1.96024 -2.05521 -1.96064 -2.05521 2.05521 1.96064 2.05521 1.96122 1.96064 1.8679 1.96122 1.86883 1.8679 1.77882 1.86883 1.77974 1.77882 1.69487 1.77974 1.69552 1.69487 1.61633 1.69552 1.61663 1.61633 1.54141 1.61663 1.54141 1.54141 1.46648 1.54141 1.46618 1.46648 1.38794 1.46618 1.38729 1.38794 1.30399 1.38729 1.30307 1.30399 1.21491 1.30307 1.21398 1.21491 1.12217 1.21398 1.12159 1.12217 1.0276 1.12159 1.0276 1.0276 0.933035 1.0276 0.933616 0.933035 0.840297 0.933616 0.841225 0.840297 0.751217 0.841225 0.752141 0.751217 0.667268 0.752141 0.667916 0.667268 0.588728 0.667916 0.589026 0.588728 0.513802 0.589026 0.513802 0.513802 0.438875 0.513802 0.438577 0.438875 0.360335 0.438577 0.359688 0.360335 0.276386 0.359688 0.275462 0.276386 0.187306 0.275462 0.186379 0.187306 0.0945687 0.186379 0.0939869 0.0945687 0 0.0939869 0 0 -0.0945687 0 -0.0939869 -0.0945687 -0.187306 -0.0939869 -0.186379 -0.187306 -0.276386 -0.186379 -0.275462 -0.276386 -0.360335 -0.275462 -0.359688 -0.360335 -0.438875 -0.359688 -0.438577 -0.438875 -0.513802 -0.438577 -0.513802 -0.513802 -0.588728 -0.513802 -0.589026 -0.588728 -0.667268 -0.589026 -0.667916 -0.667268 -0.751217 -0.667916 -0.752141 -0.751217 -0.840297 -0.752141 -0.841225 -0.840297 -0.933035 -0.841225 -0.933616 -0.933035 -1.0276 -0.933616 -1.0276 -1.0276 -1.12217 -1.0276 -1.12159 -1.12217 -1.21491 -1.12159 -1.21398 -1.21491 -1.30399 -1.21398 -1.30307 -1.30399 -1.38794 -1.30307 -1.38729 -1.38794 -1.46648 -1.38729 -1.46618 -1.46648 -1.54141 -1.46618 -1.54141 -1.54141 -1.61633 -1.54141 -1.61663 -1.61633 -1.69487 -1.61663 -1.69552 -1.69487 -1.77882 -1.69552 -1.77974 -1.77882 -1.8679 -1.77974 -1.86883 -1.8679 -1.96064 -1.86883 -1.96122 -1.96064 -2.05521 -1.96122 -2.05521 2.05521 1.96122 2.05521 1.96204 1.96122 1.86883 1.96204 1.87016 1.86883 1.77974 1.87016 1.7811 1.77974 1.69552 1.7811 1.6965 1.69552 1.61663 1.6965 1.6171 1.61663 1.54141 1.6171 1.54141 1.54141 1.46618 1.54141 1.46571 1.46618 1.38729 1.46571 1.38631 1.38729 1.30307 1.38631 1.30171 1.30307 1.21398 1.30171 1.21265 1.21398 1.12159 1.21265 1.12077 1.12159 1.0276 1.12077 1.0276 1.0276 0.933616 1.0276 0.934441 0.933616 0.841225 0.934441 0.842559 0.841225 0.752141 0.842559 0.7535 0.752141 0.667916 0.7535 0.668898 0.667916 0.589026 0.668898 0.589493 0.589026 0.513802 0.589493 0.513802 0.513802 0.438577 0.513802 0.43811 0.438577 0.359688 0.43811 0.358705 0.359688 0.275462 0.358705 0.274103 0.275462 0.186379 0.274103 0.185045 0.186379 0.0939869 0.185045 0.093162 0.0939869 0 0.093162 0 0 -0.0939869 0 -0.093162 -0.0939869 -0.186379 -0.093162 -0.185045 -0.186379 -0.275462 -0.185045 -0.274103 -0.275462 -0.359688 -0.274103 -0.358705 -0.359688 -0.438577 -0.358705 -0.43811 -0.438577 -0.513802 -0.43811 -0.513802 -0.513802 -0.589026 -0.513802 -0.589493 -0.589026 -0.667916 -0.589493 -0.668898 -0.667916 -0.752141 -0.668898 -0.7535 -0.752141 -0.841225 -0.7535 -0.842559 -0.841225 -0.933616 -0.842559 -0.934441 -0.933616 -1.0276 -0.934441 -1.0276 -1.0276 -1.12159 -1.0276 -1.12077 -1.12159 -1.21398 -1.12077 -1.21265 -1.21398 -1.30307 -1.21265 -1.30171 -1.30307 -1.38729 -1.30171 -1.38631 -1.38729 -1.46618 -1.38631 -1.46571 -1.46618 -1.54141 -1.46571 -1.54141 -1.54141 -1.61663 -1.54141 -1.6171 -1.61663 -1.69552 -1.6171 -1.6965 -1.69552 -1.77974 -1.6965 -1.7811 -1.77974 -1.86883 -1.7811 -1.87016 -1.86883 -1.96122 -1.87016 -1.96204 -1.96122 -2.05521 -1.96204 -2.05521 2.05521 1.96204 2.05521 1.96318 1.96204 1.87016 1.96318 1.87203 1.87016 1.7811 1.87203 1.78306 1.7811 1.6965 1.78306 1.69796 1.6965 1.6171 1.69796 1.61781 1.6171 1.54141 1.61781 1.54141 1.54141 1.46571 1.54141 1.465 1.46571 1.38631 1.465 1.38485 1.38631 1.30171 1.38485 1.29975 1.30171 1.21265 1.29975 1.21078 1.21265 1.12077 1.21078 1.11963 1.12077 1.0276 1.11963 1.0276 1.0276 0.934441 1.0276 0.935579 0.934441 0.842559 0.935579 0.844428 0.842559 0.7535 0.844428 0.755455 0.7535 0.668898 0.755455 0.670357 0.668898 0.589493 0.670357 0.59021 0.589493 0.513802 0.59021 0.513802 0.513802 0.43811 0.513802 0.437394 0.43811 0.358705 0.437394 0.357246 0.358705 0.274103 0.357246 0.272148 0.274103 0.185045 0.272148 0.183175 0.185045 0.093162 0.183175 0.0920245 0.093162 0 0.0920245 0 0 -0.093162 0 -0.0920245 -0.093162 -0.185045 -0.0920245 -0.183175 -0.185045 -0.274103 -0.183175 -0.272148 -0.274103 -0.358705 -0.272148 -0.357246 -0.358705 -0.43811 -0.357246 -0.437394 -0.43811 -0.513802 -0.437394 -0.513802 -0.513802 -0.589493 -0.513802 -0.59021 -0.589493 -0.668898 -0.59021 -0.670357 -0.668898 -0.7535 -0.670357 -0.755455 -0.7535 -0.842559 -0.755455 -0.844428 -0.842559 -0.934441 -0.844428 -0.935579 -0.934441 -1.0276 -0.935579 -1.0276 -1.0276 -1.12077 -1.0276 -1.11963 -1.12077 -1.21265 -1.11963 -1.21078 -1.21265 -1.30171 -1.21078 -1.29975 -1.30171 -1.38631 -1.29975 -1.38485 -1.38631 -1.46571 -1.38485 -1.465 -1.46571 -1.54141 -1.465 -1.54141 -1.54141 -1.6171 -1.54141 -1.61781 -1.6171 -1.6965 -1.61781 -1.69796 -1.6965 -1.7811 -1.69796 -1.78306 -1.7811 -1.87016 -1.78306 -1.87203 -1.87016 -1.96204 -1.87203 -1.96318 -1.96204 -2.05521 -1.96318 -2.05521 2.05521 1.96318 2.05521 1.96471 1.96318 1.87203 1.96471 1.87459 1.87203 1.78306 1.87459 1.78581 1.78306 1.69796 1.78581 1.70008 1.69796 1.61781 1.70008 1.61889 1.61781 1.54141 1.61889 1.54141 1.54141 1.465 1.54141 1.46392 1.465 1.38485 1.46392 1.38273 1.38485 1.29975 1.38273 1.297 1.29975 1.21078 1.297 1.20822 1.21078 1.11963 1.20822 1.1181 1.11963 1.0276 1.1181 1.0276 1.0276 0.935579 1.0276 0.937107 0.935579 0.844428 0.937107 0.846986 0.844428 0.755455 0.846986 0.758204 0.755455 0.670357 0.758204 0.672478 0.670357 0.59021 0.672478 0.591284 0.59021 0.513802 0.591284 0.513802 0.513802 0.437394 0.513802 0.43632 0.437394 0.357246 0.43632 0.355125 0.357246 0.272148 0.355125 0.269399 0.272148 0.183175 0.269399 0.180617 0.183175 0.0920245 0.180617 0.0904963 0.0920245 0 0.0904963 0 0 -0.0920245 0 -0.0904963 -0.0920245 -0.183175 -0.0904963 -0.180617 -0.183175 -0.272148 -0.180617 -0.269399 -0.272148 -0.357246 -0.269399 -0.355125 -0.357246 -0.437394 -0.355125 -0.43632 -0.437394 -0.513802 -0.43632 -0.513802 -0.513802 -0.59021 -0.513802 -0.591284 -0.59021 -0.670357 -0.591284 -0.672478 -0.670357 -0.755455 -0.672478 -0.758204 -0.755455 -0.844428 -0.758204 -0.846986 -0.844428 -0.935579 -0.846986 -0.937107 -0.935579 -1.0276 -0.937107 -1.0276 -1.0276 -1.11963 -1.0276 -1.1181 -1.11963 -1.21078 -1.1181 -1.20822 -1.21078 -1.29975 -1.20822 -1.297 -1.29975 -1.38485 -1.297 -1.38273 -1.38485 -1.465 -1.38273 -1.46392 -1.465 -1.54141 -1.46392 -1.54141 -1.54141 -1.61781 -1.54141 -1.61889 -1.61781 -1.69796 -1.61889 -1.70008 -1.69796 -1.78306 -1.70008 -1.78581 -1.78306 -1.87203 -1.78581 -1.87459 -1.87203 -1.96318 -1.87459 -1.96471 -1.96318 -2.05521 -1.96471 -2.05521 2.05521 1.96471 2.05521 1.96671 1.96471 1.87459 1.96671 1.87801 1.87459 1.78581 1.87801 1.7896 1.78581 1.70008 1.7896 1.70311 1.70008 1.61889 1.70311 1.62047 1.61889 1.54141 1.62047 1.54141 1.54141 1.46392 1.54141 1.46234 1.46392 1.38273 1.46234 1.3797 1.38273 1.297 1.3797 1.29321 1.297 1.20822 1.29321 1.2048 1.20822 1.1181 1.2048 1.1161 1.1181 1.0276 1.1161 1.0276 1.0276 0.937107 1.0276 0.939108 0.937107 0.846986 0.939108 0.850405 0.846986 0.758204 0.850405 0.761994 0.758204 0.672478 0.761994 0.675506 0.672478 0.591284 0.675506 0.592864 0.591284 0.513802 0.592864 0.513802 0.513802 0.43632 0.513802 0.43474 0.43632 0.355125 0.43474 0.352098 0.355125 0.269399 0.352098 0.26561 0.269399 0.180617 0.26561 0.177198 0.180617 0.0904963 0.177198 0.0884955 0.0904963 0 0.0884955 0 0 -0.0904963 0 -0.0884955 -0.0904963 -0.180617 -0.0884955 -0.177198 -0.180617 -0.269399 -0.177198 -0.26561 -0.269399 -0.355125 -0.26561 -0.352098 -0.355125 -0.43632 -0.352098 -0.43474 -0.43632 -0.513802 -0.43474 -0.513802 -0.513802 -0.591284 -0.513802 -0.592864 -0.591284 -0.672478 -0.592864 -0.675506 -0.672478 -0.758204 -0.675506 -0.761994 -0.758204 -0.846986 -0.761994 -0.850405 -0.846986 -0.937107 -0.850405 -0.939108 -0.937107 -1.0276 -0.939108 -1.0276 -1.0276 -1.1181 -1.0276 -1.1161 -1.1181 -1.20822 -1.1161 -1.2048 -1.20822 -1.297 -1.2048 -1.29321 -1.297 -1.38273 -1.29321 -1.3797 -1.38273 -1.46392 -1.3797 -1.46234 -1.46392 -1.54141 -1.46234 -1.54141 -1.54141 -1.61889 -1.54141 -1.62047 -1.61889 -1.70008 -1.62047 -1.70311 -1.70008 -1.78581 -1.70311 -1.7896 -1.78581 -1.87459 -1.7896 -1.87801 -1.87459 -1.96471 -1.87801 -1.96671 -1.96471 -2.05521 -1.96671 -2.05521 2.05521 1.96671 2.05521 1.96926 1.96671 1.87801 1.96926 1.88247 1.87801 1.7896 1.88247 1.79472 1.7896 1.70311 1.79472 1.70737 1.70311 1.62047 1.70737 1.62276 1.62047 1.54141 1.62276 1.54141 1.54141 1.46234 1.54141 1.46005 1.46234 1.3797 1.46005 1.37544 1.3797 1.29321 1.37544 1.28809 1.29321 1.2048 1.28809 1.20034 1.2048 1.1161 1.20034 1.11355 1.1161 1.0276 1.11355 1.0276 1.0276 0.939108 1.0276 0.941659 0.939108 0.850405 0.941659 0.854868 0.850405 0.761994 0.854868 0.767118 0.761994 0.675506 0.767118 0.679764 0.675506 0.592864 0.679764 0.595159 0.592864 0.513802 0.595159 0.513802 0.513802 0.43474 0.513802 0.432445 0.43474 0.352098 0.432445 0.34784 0.352098 0.26561 0.34784 0.260485 0.26561 0.177198 0.260485 0.172735 0.177198 0.0884955 0.172735 0.0859439 0.0884955 0 0.0859439 0 0 -0.0884955 0 -0.0859439 -0.0884955 -0.177198 -0.0859439 -0.172735 -0.177198 -0.26561 -0.172735 -0.260485 -0.26561 -0.352098 -0.260485 -0.34784 -0.352098 -0.43474 -0.34784 -0.432445 -0.43474 -0.513802 -0.432445 -0.513802 -0.513802 -0.592864 -0.513802 -0.595159 -0.592864 -0.675506 -0.595159 -0.679764 -0.675506 -0.761994 -0.679764 -0.767118 -0.761994 -0.850405 -0.767118 -0.854868 -0.850405 -0.939108 -0.854868 -0.941659 -0.939108 -1.0276 -0.941659 -1.0276 -1.0276 -1.1161 -1.0276 -1.11355 -1.1161 -1.2048 -1.11355 -1.20034 -1.2048 -1.29321 -1.20034 -1.28809 -1.29321 -1.3797 -1.28809 -1.37544 -1.3797 -1.46234 -1.37544 -1.46005 -1.46234 -1.54141 -1.46005 -1.54141 -1.54141 -1.62047 -1.54141 -1.62276 -1.62047 -1.70311 -1.62276 -1.70737 -1.70311 -1.7896 -1.70737 -1.79472 -1.7896 -1.87801 -1.79472 -1.88247 -1.87801 -1.96671 -1.88247 -1.96926 -1.96671 -2.05521 -1.96926 -2.05521 2.05521 1.96926 2.05521 1.97243 1.96926 1.88247 1.97243 1.88816 1.88247 1.79472 1.88816 1.80152 1.79472 1.70737 1.80152 1.71329 1.70737 1.62276 1.71329 1.62608 1.62276 1.54141 1.62608 1.54141 1.54141 1.46005 1.54141 1.45673 1.46005 1.37544 1.45673 1.36952 1.37544 1.28809 1.36952 1.28129 1.28809 1.20034 1.28129 1.19465 1.20034 1.11355 1.19465 1.11038 1.11355 1.0276 1.11038 1.0276 1.0276 0.941659 1.0276 0.944828 0.941659 0.854868 0.944828 0.860557 0.854868 0.767118 0.860557 0.773922 0.767118 0.679764 0.773922 0.685686 0.679764 0.595159 0.685686 0.598473 0.595159 0.513802 0.598473 0.513802 0.513802 0.432445 0.513802 0.42913 0.432445 0.34784 0.42913 0.341917 0.34784 0.260485 0.341917 0.253682 0.260485 0.172735 0.253682 0.167046 0.172735 0.0859439 0.167046 0.0827758 0.0859439 0 0.0827758 0 0 -0.0859439 0 -0.0827758 -0.0859439 -0.172735 -0.0827758 -0.167046 -0.172735 -0.260485 -0.167046 -0.253682 -0.260485 -0.34784 -0.253682 -0.341917 -0.34784 -0.432445 -0.341917 -0.42913 -0.432445 -0.513802 -0.42913 -0.513802 -0.513802 -0.595159 -0.513802 -0.598473 -0.595159 -0.679764 -0.598473 -0.685686 -0.679764 -0.767118 -0.685686 -0.773922 -0.767118 -0.854868 -0.773922 -0.860557 -0.854868 -0.941659 -0.860557 -0.944828 -0.941659 -1.0276 -0.944828 -1.0276 -1.0276 -1.11355 -1.0276 -1.11038 -1.11355 -1.20034 -1.11038 -1.19465 -1.20034 -1.28809 -1.19465 -1.28129 -1.28809 -1.37544 -1.28129 -1.36952 -1.37544 -1.46005 -1.36952 -1.45673 -1.46005 -1.54141 -1.45673 -1.54141 -1.54141 -1.62276 -1.54141 -1.62608 -1.62276 -1.70737 -1.62608 -1.71329 -1.70737 -1.79472 -1.71329 -1.80152 -1.79472 -1.88247 -1.80152 -1.88816 -1.88247 -1.96926 -1.88816 -1.97243 -1.96926 -2.05521 -1.97243 -2.05521 2.05521 1.97243 2.05521 1.97626 1.97243 1.88816 1.97626 1.89523 1.88816 1.80152 1.89523 1.81039 1.80152 1.71329 1.81039 1.72147 1.71329 1.62608 1.72147 1.63088 1.62608 1.54141 1.63088 1.54141 1.54141 1.45673 1.54141 1.45193 1.45673 1.36952 1.45193 1.36134 1.36952 1.28129 1.36134 1.27242 1.28129 1.19465 1.27242 1.18758 1.19465 1.11038 1.18758 1.10655 1.11038 1.0276 1.10655 1.0276 1.0276 0.944828 1.0276 0.948655 0.944828 0.860557 0.948655 0.867623 0.860557 0.773922 0.867623 0.782785 0.773922 0.685686 0.782785 0.693865 0.685686 0.598473 0.693865 0.603278 0.598473 0.513802 0.603278 0.513802 0.513802 0.42913 0.513802 0.424325 0.42913 0.341917 0.424325 0.333739 0.341917 0.253682 0.333739 0.244818 0.253682 0.167046 0.244818 0.159981 0.167046 0.0827758 0.159981 0.0789488 0.0827758 0 0.0789488 0 0 -0.0827758 0 -0.0789488 -0.0827758 -0.167046 -0.0789488 -0.159981 -0.167046 -0.253682 -0.159981 -0.244818 -0.253682 -0.341917 -0.244818 -0.333739 -0.341917 -0.42913 -0.333739 -0.424325 -0.42913 -0.513802 -0.424325 -0.513802 -0.513802 -0.598473 -0.513802 -0.603278 -0.598473 -0.685686 -0.603278 -0.693865 -0.685686 -0.773922 -0.693865 -0.782785 -0.773922 -0.860557 -0.782785 -0.867623 -0.860557 -0.944828 -0.867623 -0.948655 -0.944828 -1.0276 -0.948655 -1.0276 -1.0276 -1.11038 -1.0276 -1.10655 -1.11038 -1.19465 -1.10655 -1.18758 -1.19465 -1.28129 -1.18758 -1.27242 -1.28129 -1.36952 -1.27242 -1.36134 -1.36952 -1.45673 -1.36134 -1.45193 -1.45673 -1.54141 -1.45193 -1.54141 -1.54141 -1.62608 -1.54141 -1.63088 -1.62608 -1.71329 -1.63088 -1.7214