# vtk DataFile Version 3.0
#This file was generated by the deal.II library on 2017/9/27 at 13:07:51
ASCII
DATASET UNSTRUCTURED_GRID

POINTS 2688 double
-3.57512 -5.9062e-26 0
-3.42619 0 0
-3.57512 0.0785251 0
-3.42619 0.0785217 0
-3.42619 0 0
-3.27725 0 0
-3.42619 0.0785217 0
-3.27725 0.0785125 0
-3.27725 0 0
-3.1283 0 0
-3.27725 0.0785125 0
-3.1283 0.0784999 0
-3.1283 0 0
-2.97933 0 0
-3.1283 0.0784999 0
-2.97933 0.0784873 0
-2.97933 0 0
-2.83034 0 0
-2.97933 0.0784873 0
-2.83034 0.0784781 0
-2.83034 0 0
-2.68134 0 0
-2.83034 0.0784781 0
-2.68134 0.0784747 0
-2.68134 0 0
-2.53234 0 0
-2.68134 0.0784747 0
-2.53234 0.0784781 0
-2.53234 0 0
-2.38335 0 0
-2.53234 0.0784781 0
-2.38335 0.0784873 0
-2.38335 0 0
-2.23438 0 0
-2.38335 0.0784873 0
-2.23438 0.0784999 0
-2.23438 0 0
-2.08543 0 0
-2.23438 0.0784999 0
-2.08543 0.0785125 0
-2.08543 0 0
-1.93649 0 0
-2.08543 0.0785125 0
-1.93649 0.0785217 0
-1.93649 0 0
-1.78756 0 0
-1.93649 0.0785217 0
-1.78756 0.0785251 0
-1.78756 0 0
-1.63863 0 0
-1.78756 0.0785251 0
-1.63863 0.0785217 0
-1.63863 0 0
-1.48969 0 0
-1.63863 0.0785217 0
-1.48969 0.0785125 0
-1.48969 0 0
-1.34074 0 0
-1.48969 0.0785125 0
-1.34074 0.0784999 0
-1.34074 0 0
-1.19177 0 0
-1.34074 0.0784999 0
-1.19177 0.0784873 0
-1.19177 0 0
-1.04278 0 0
-1.19177 0.0784873 0
-1.04278 0.0784781 0
-1.04278 0 0
-0.89378 0 0
-1.04278 0.0784781 0
-0.89378 0.0784747 0
-0.89378 0 0
-0.744782 0 0
-0.89378 0.0784747 0
-0.744782 0.0784781 0
-0.744782 0 0
-0.595793 0 0
-0.744782 0.0784781 0
-0.595793 0.0784873 0
-0.595793 0 0
-0.446821 0 0
-0.595793 0.0784873 0
-0.446821 0.0784999 0
-0.446821 0 0
-0.297867 0 0
-0.446821 0.0784999 0
-0.297867 0.0785125 0
-0.297867 0 0
-0.148929 0 0
-0.297867 0.0785125 0
-0.148929 0.0785217 0
-0.148929 0 0
0 0 0
-0.148929 0.0785217 0
0 0.0785251 0
0 0 0
0.148929 0 0
0 0.0785251 0
0.148929 0.0785217 0
0.148929 0 0
0.297867 -5.14376e-26 0
0.148929 0.0785217 0
0.297867 0.0785125 0
0.297867 -5.14376e-26 0
0.446821 3.89153e-26 0
0.297867 0.0785125 0
0.446821 0.0784999 0
0.446821 3.89153e-26 0
0.595793 -1.9091e-26 0
0.446821 0.0784999 0
0.595793 0.0784873 0
0.595793 -1.9091e-26 0
0.744782 -2.72082e-26 0
0.595793 0.0784873 0
0.744782 0.0784781 0
0.744782 -2.72082e-26 0
0.89378 -2.9761e-26 0
0.744782 0.0784781 0
0.89378 0.0784747 0
0.89378 -2.9761e-26 0
1.04278 1.99383e-27 0
0.89378 0.0784747 0
1.04278 0.0784781 0
1.04278 1.99383e-27 0
1.19177 -4.1628e-26 0
1.04278 0.0784781 0
1.19177 0.0784873 0
1.19177 -4.1628e-26 0
1.34074 -2.99412e-26 0
1.19177 0.0784873 0
1.34074 0.0784999 0
1.34074 -2.99412e-26 0
1.48969 3.45143e-26 0
1.34074 0.0784999 0
1.48969 0.0785125 0
1.48969 3.45143e-26 0
1.63863 -1.40071e-26 0
1.48969 0.0785125 0
1.63863 0.0785217 0
1.63863 -1.40071e-26 0
1.78756 -1.7655e-26 0
1.63863 0.0785217 0
1.78756 0.0785251 0
1.78756 -1.7655e-26 0
1.93649 1.00128e-26 0
1.78756 0.0785251 0
1.93649 0.0785217 0
1.93649 1.00128e-26 0
2.08543 5.95498e-26 0
1.93649 0.0785217 0
2.08543 0.0785125 0
2.08543 5.95498e-26 0
2.23438 -6.08858e-26 0
2.08543 0.0785125 0
2.23438 0.0784999 0
2.23438 -6.08858e-26 0
2.38335 -3.57898e-26 0
2.23438 0.0784999 0
2.38335 0.0784873 0
2.38335 -3.57898e-26 0
2.53234 -3.51061e-26 0
2.38335 0.0784873 0
2.53234 0.0784781 0
2.53234 -3.51061e-26 0
2.68134 1.29659e-26 0
2.53234 0.0784781 0
2.68134 0.0784747 0
2.68134 1.29659e-26 0
2.83034 1.95949e-26 0
2.68134 0.0784747 0
2.83034 0.0784781 0
2.83034 1.95949e-26 0
2.97933 2.52005e-26 0
2.83034 0.0784781 0
2.97933 0.0784873 0
2.97933 2.52005e-26 0
3.1283 -3.68e-26 0
2.97933 0.0784873 0
3.1283 0.0784999 0
3.1283 -3.68e-26 0
3.27725 -5.0712e-26 0
3.1283 0.0784999 0
3.27725 0.0785125 0
3.27725 -5.0712e-26 0
3.42619 1.50544e-26 0
3.27725 0.0785125 0
3.42619 0.0785217 0
3.42619 1.50544e-26 0
3.57512 -5.9062e-26 0
3.42619 0.0785217 0
3.57512 0.0785251 0
-3.57512 0.0785251 0
-3.42619 0.0785217 0
-3.57512 0.157048 0
-3.42619 0.157041 0
-3.42619 0.0785217 0
-3.27725 0.0785125 0
-3.42619 0.157041 0
-3.27725 0.157024 0
-3.27725 0.0785125 0
-3.1283 0.0784999 0
-3.27725 0.157024 0
-3.1283 0.157 0
-3.1283 0.0784999 0
-2.97933 0.0784873 0
-3.1283 0.157 0
-2.97933 0.156976 0
-2.97933 0.0784873 0
-2.83034 0.0784781 0
-2.97933 0.156976 0
-2.83034 0.156958 0
-2.83034 0.0784781 0
-2.68134 0.0784747 0
-2.83034 0.156958 0
-2.68134 0.156952 0
-2.68134 0.0784747 0
-2.53234 0.0784781 0
-2.68134 0.156952 0
-2.53234 0.156958 0
-2.53234 0.0784781 0
-2.38335 0.0784873 0
-2.53234 0.156958 0
-2.38335 0.156976 0
-2.38335 0.0784873 0
-2.23438 0.0784999 0
-2.38335 0.156976 0
-2.23438 0.157 0
-2.23438 0.0784999 0
-2.08543 0.0785125 0
-2.23438 0.157 0
-2.08543 0.157024 0
-2.08543 0.0785125 0
-1.93649 0.0785217 0
-2.08543 0.157024 0
-1.93649 0.157041 0
-1.93649 0.0785217 0
-1.78756 0.0785251 0
-1.93649 0.157041 0
-1.78756 0.157048 0
-1.78756 0.0785251 0
-1.63863 0.0785217 0
-1.78756 0.157048 0
-1.63863 0.157041 0
-1.63863 0.0785217 0
-1.48969 0.0785125 0
-1.63863 0.157041 0
-1.48969 0.157024 0
-1.48969 0.0785125 0
-1.34074 0.0784999 0
-1.48969 0.157024 0
-1.34074 0.157 0
-1.34074 0.0784999 0
-1.19177 0.0784873 0
-1.34074 0.157 0
-1.19177 0.156976 0
-1.19177 0.0784873 0
-1.04278 0.0784781 0
-1.19177 0.156976 0
-1.04278 0.156958 0
-1.04278 0.0784781 0
-0.89378 0.0784747 0
-1.04278 0.156958 0
-0.89378 0.156952 0
-0.89378 0.0784747 0
-0.744782 0.0784781 0
-0.89378 0.156952 0
-0.744782 0.156958 0
-0.744782 0.0784781 0
-0.595793 0.0784873 0
-0.744782 0.156958 0
-0.595794 0.156976 0
-0.595793 0.0784873 0
-0.446821 0.0784999 0
-0.595794 0.156976 0
-0.446821 0.157 0
-0.446821 0.0784999 0
-0.297867 0.0785125 0
-0.446821 0.157 0
-0.297867 0.157024 0
-0.297867 0.0785125 0
-0.148929 0.0785217 0
-0.297867 0.157024 0
-0.148929 0.157041 0
-0.148929 0.0785217 0
0 0.0785251 0
-0.148929 0.157041 0
0 0.157048 0
0 0.0785251 0
0.148929 0.0785217 0
0 0.157048 0
0.148929 0.157041 0
0.148929 0.0785217 0
0.297867 0.0785125 0
0.148929 0.157041 0
0.297867 0.157024 0
0.297867 0.0785125 0
0.446821 0.0784999 0
0.297867 0.157024 0
0.446821 0.157 0
0.446821 0.0784999 0
0.595793 0.0784873 0
0.446821 0.157 0
0.595794 0.156976 0
0.595793 0.0784873 0
0.744782 0.0784781 0
0.595794 0.156976 0
0.744782 0.156958 0
0.744782 0.0784781 0
0.89378 0.0784747 0
0.744782 0.156958 0
0.89378 0.156952 0
0.89378 0.0784747 0
1.04278 0.0784781 0
0.89378 0.156952 0
1.04278 0.156958 0
1.04278 0.0784781 0
1.19177 0.0784873 0
1.04278 0.156958 0
1.19177 0.156976 0
1.19177 0.0784873 0
1.34074 0.0784999 0
1.19177 0.156976 0
1.34074 0.157 0
1.34074 0.0784999 0
1.48969 0.0785125 0
1.34074 0.157 0
1.48969 0.157024 0
1.48969 0.0785125 0
1.63863 0.0785217 0
1.48969 0.157024 0
1.63863 0.157041 0
1.63863 0.0785217 0
1.78756 0.0785251 0
1.63863 0.157041 0
1.78756 0.157048 0
1.78756 0.0785251 0
1.93649 0.0785217 0
1.78756 0.157048 0
1.93649 0.157041 0
1.93649 0.0785217 0
2.08543 0.0785125 0
1.93649 0.157041 0
2.08543 0.157024 0
2.08543 0.0785125 0
2.23438 0.0784999 0
2.08543 0.157024 0
2.23438 0.157 0
2.23438 0.0784999 0
2.38335 0.0784873 0
2.23438 0.157 0
2.38335 0.156976 0
2.38335 0.0784873 0
2.53234 0.0784781 0
2.38335 0.156976 0
2.53234 0.156958 0
2.53234 0.0784781 0
2.68134 0.0784747 0
2.53234 0.156958 0
2.68134 0.156952 0
2.68134 0.0784747 0
2.83034 0.0784781 0
2.68134 0.156952 0
2.83034 0.156958 0
2.83034 0.0784781 0
2.97933 0.0784873 0
2.83034 0.156958 0
2.97933 0.156976 0
2.97933 0.0784873 0
3.1283 0.0784999 0
2.97933 0.156976 0
3.1283 0.157 0
3.1283 0.0784999 0
3.27725 0.0785125 0
3.1283 0.157 0
3.27725 0.157024 0
3.27725 0.0785125 0
3.42619 0.0785217 0
3.27725 0.157024 0
3.42619 0.157041 0
3.42619 0.0785217 0
3.57512 0.0785251 0
3.42619 0.157041 0
3.57512 0.157048 0
-3.57512 0.157048 0
-3.42619 0.157041 0
-3.57512 0.235569 0
-3.42619 0.23556 0
-3.42619 0.157041 0
-3.27725 0.157024 0
-3.42619 0.23556 0
-3.27725 0.235534 0
-3.27725 0.157024 0
-3.1283 0.157 0
-3.27725 0.235534 0
-3.1283 0.2355 0
-3.1283 0.157 0
-2.97933 0.156976 0
-3.1283 0.2355 0
-2.97932 0.235465 0
-2.97933 0.156976 0
-2.83034 0.156958 0
-2.97932 0.235465 0
-2.83034 0.23544 0
-2.83034 0.156958 0
-2.68134 0.156952 0
-2.83034 0.23544 0
-2.68134 0.235431 0
-2.68134 0.156952 0
-2.53234 0.156958 0
-2.68134 0.235431 0
-2.53234 0.23544 0
-2.53234 0.156958 0
-2.38335 0.156976 0
-2.53234 0.23544 0
-2.38335 0.235465 0
-2.38335 0.156976 0
-2.23438 0.157 0
-2.38335 0.235465 0
-2.23438 0.2355 0
-2.23438 0.157 0
-2.08543 0.157024 0
-2.23438 0.2355 0
-2.08543 0.235534 0
-2.08543 0.157024 0
-1.93649 0.157041 0
-2.08543 0.235534 0
-1.93649 0.23556 0
-1.93649 0.157041 0
-1.78756 0.157048 0
-1.93649 0.23556 0
-1.78756 0.235569 0
-1.78756 0.157048 0
-1.63863 0.157041 0
-1.78756 0.235569 0
-1.63863 0.23556 0
-1.63863 0.157041 0
-1.48969 0.157024 0
-1.63863 0.23556 0
-1.48969 0.235534 0
-1.48969 0.157024 0
-1.34074 0.157 0
-1.48969 0.235534 0
-1.34074 0.2355 0
-1.34074 0.157 0
-1.19177 0.156976 0
-1.34074 0.2355 0
-1.19176 0.235465 0
-1.19177 0.156976 0
-1.04278 0.156958 0
-1.19176 0.235465 0
-1.04278 0.23544 0
-1.04278 0.156958 0
-0.89378 0.156952 0
-1.04278 0.23544 0
-0.89378 0.235431 0
-0.89378 0.156952 0
-0.744782 0.156958 0
-0.89378 0.235431 0
-0.744783 0.23544 0
-0.744782 0.156958 0
-0.595794 0.156976 0
-0.744783 0.23544 0
-0.595795 0.235465 0
-0.595794 0.156976 0
-0.446821 0.157 0
-0.595795 0.235465 0
-0.446823 0.2355 0
-0.446821 0.157 0
-0.297867 0.157024 0
-0.446823 0.2355 0
-0.297868 0.235534 0
-0.297867 0.157024 0
-0.148929 0.157041 0
-0.297868 0.235534 0
-0.14893 0.23556 0
-0.148929 0.157041 0
0 0.157048 0
-0.14893 0.23556 0
0 0.235569 0
0 0.157048 0
0.148929 0.157041 0
0 0.235569 0
0.14893 0.23556 0
0.148929 0.157041 0
0.297867 0.157024 0
0.14893 0.23556 0
0.297868 0.235534 0
0.297867 0.157024 0
0.446821 0.157 0
0.297868 0.235534 0
0.446823 0.2355 0
0.446821 0.157 0
0.595794 0.156976 0
0.446823 0.2355 0
0.595795 0.235465 0
0.595794 0.156976 0
0.744782 0.156958 0
0.595795 0.235465 0
0.744783 0.23544 0
0.744782 0.156958 0
0.89378 0.156952 0
0.744783 0.23544 0
0.89378 0.235431 0
0.89378 0.156952 0
1.04278 0.156958 0
0.89378 0.235431 0
1.04278 0.23544 0
1.04278 0.156958 0
[...]
POINT_DATA 2688
SCALARS x1_displacement double 1
LOOKUP_TABLE default
2.05695 1.97121 2.05695 1.97121 1.97121 1.88548 1.97121 1.88548 1.88548 1.79976 1.88548 1.79977 1.79976 1.71407 1.79977 1.71407 1.71407 1.62839 1.71407 1.62839 1.62839 1.54272 1.62839 1.54272 1.54272 1.45704 1.54272 1.45704 1.45704 1.37136 1.45704 1.37136 1.37136 1.28567 1.37136 1.28567 1.28567 1.19995 1.28567 1.19995 1.19995 1.11422 1.19995 1.11422 1.11422 1.02848 1.11422 1.02848 1.02848 0.942736 1.02848 0.942736 0.942736 0.857004 0.942736 0.857004 0.857004 0.771288 0.857004 0.771288 0.771288 0.685591 0.771288 0.685591 0.685591 0.59991 0.685591 0.59991 0.59991 0.514238 0.59991 0.514238 0.514238 0.428567 0.514238 0.428567 0.428567 0.342886 0.428567 0.342885 0.342886 0.257188 0.342885 0.257188 0.257188 0.171473 0.257188 0.171473 0.171473 0.085741 0.171473 0.0857409 0.085741 0 0.0857409 0 0 -0.085741 0 -0.0857409 -0.085741 -0.171473 -0.0857409 -0.171473 -0.171473 -0.257188 -0.171473 -0.257188 -0.257188 -0.342886 -0.257188 -0.342885 -0.342886 -0.428567 -0.342885 -0.428567 -0.428567 -0.514238 -0.428567 -0.514238 -0.514238 -0.59991 -0.514238 -0.59991 -0.59991 -0.685591 -0.59991 -0.685591 -0.685591 -0.771288 -0.685591 -0.771288 -0.771288 -0.857004 -0.771288 -0.857004 -0.857004 -0.942736 -0.857004 -0.942736 -0.942736 -1.02848 -0.942736 -1.02848 -1.02848 -1.11422 -1.02848 -1.11422 -1.11422 -1.19995 -1.11422 -1.19995 -1.19995 -1.28567 -1.19995 -1.28567 -1.28567 -1.37136 -1.28567 -1.37136 -1.37136 -1.45704 -1.37136 -1.45704 -1.45704 -1.54272 -1.45704 -1.54272 -1.54272 -1.62839 -1.54272 -1.62839 -1.62839 -1.71407 -1.62839 -1.71407 -1.71407 -1.79976 -1.71407 -1.79977 -1.79976 -1.88548 -1.79977 -1.88548 -1.88548 -1.97121 -1.88548 -1.97121 -1.97121 -2.05695 -1.97121 -2.05695 2.05695 1.97121 2.05695 1.97121 1.97121 1.88548 1.97121 1.88548 1.88548 1.79977 1.88548 1.79977 1.79977 1.71407 1.79977 1.71407 1.71407 1.62839 1.71407 1.62839 1.62839 1.54272 1.62839 1.54272 1.54272 1.45704 1.54272 1.45704 1.45704 1.37136 1.45704 1.37136 1.37136 1.28567 1.37136 1.28566 1.28567 1.19995 1.28566 1.19995 1.19995 1.11422 1.19995 1.11422 1.11422 1.02848 1.11422 1.02848 1.02848 0.942736 1.02848 0.942736 0.942736 0.857004 0.942736 0.857005 0.857004 0.771288 0.857005 0.771289 0.771288 0.685591 0.771289 0.685592 0.685591 0.59991 0.685592 0.59991 0.59991 0.514238 0.59991 0.514238 0.514238 0.428567 0.514238 0.428566 0.428567 0.342885 0.428566 0.342885 0.342885 0.257188 0.342885 0.257188 0.257188 0.171473 0.257188 0.171472 0.171473 0.0857409 0.171472 0.0857406 0.0857409 0 0.0857406 0 0 -0.0857409 0 -0.0857406 -0.0857409 -0.171473 -0.0857406 -0.171472 -0.171473 -0.257188 -0.171472 -0.257188 -0.257188 -0.342885 -0.257188 -0.342885 -0.342885 -0.428567 -0.342885 -0.428566 -0.428567 -0.514238 -0.428566 -0.514238 -0.514238 -0.59991 -0.514238 -0.59991 -0.59991 -0.685591 -0.59991 -0.685592 -0.685591 -0.771288 -0.685592 -0.771289 -0.771288 -0.857004 -0.771289 -0.857005 -0.857004 -0.942736 -0.857005 -0.942736 -0.942736 -1.02848 -0.942736 -1.02848 -1.02848 -1.11422 -1.02848 -1.11422 -1.11422 -1.19995 -1.11422 -1.19995 -1.19995 -1.28567 -1.19995 -1.28566 -1.28567 -1.37136 -1.28566 -1.37136 -1.37136 -1.45704 -1.37136 -1.45704 -1.45704 -1.54272 -1.45704 -1.54272 -1.54272 -1.62839 -1.54272 -1.62839 -1.62839 -1.71407 -1.62839 -1.71407 -1.71407 -1.79977 -1.71407 -1.79977 -1.79977 -1.88548 -1.79977 -1.88548 -1.88548 -1.97121 -1.88548 -1.97121 -1.97121 -2.05695 -1.97121 -2.05695 2.05695 1.97121 2.05695 1.97121 1.97121 1.88548 1.97121 1.88548 1.88548 1.79977 1.88548 1.79977 1.79977 1.71407 1.79977 1.71407 1.71407 1.62839 1.71407 1.62839 1.62839 1.54272 1.62839 1.54272 1.54272 1.45704 1.54272 1.45704 1.45704 1.37136 1.45704 1.37136 1.37136 1.28566 1.37136 1.28566 1.28566 1.19995 1.28566 1.19995 1.19995 1.11422 1.19995 1.11422 1.11422 1.02848 1.11422 1.02848 1.02848 0.942736 1.02848 0.942737 0.942736 0.857005 0.942737 0.857006 0.857005 0.771289 0.857006 0.77129 0.771289 0.685592 0.77129 0.685593 0.685592 0.59991 0.685593 0.599911 0.59991 0.514238 0.599911 0.514238 0.514238 0.428566 0.514238 0.428566 0.428566 0.342885 0.428566 0.342884 0.342885 0.257188 0.342884 0.257186 0.257188 0.171472 0.257186 0.171471 0.171472 0.0857406 0.171471 0.08574 0.0857406 0 0.08574 0 0 -0.0857406 0 -0.08574 -0.0857406 -0.171472 -0.08574 -0.171471 -0.171472 -0.257188 -0.171471 -0.257186 -0.257188 -0.342885 -0.257186 -0.342884 -0.342885 -0.428566 -0.342884 -0.428566 -0.428566 -0.514238 -0.428566 -0.514238 -0.514238 -0.59991 -0.514238 -0.599911 -0.59991 -0.685592 -0.599911 -0.685593 -0.685592 -0.771289 -0.685593 -0.77129 -0.771289 -0.857005 -0.77129 -0.857006 -0.857005 -0.942736 -0.857006 -0.942737 -0.942736 -1.02848 -0.942737 -1.02848 -1.02848 -1.11422 -1.02848 -1.11422 -1.11422 -1.19995 -1.11422 -1.19995 -1.19995 -1.28566 -1.19995 -1.28566 -1.28566 -1.37136 -1.28566 -1.37136 -1.37136 -1.45704 -1.37136 -1.45704 -1.45704 -1.54272 -1.45704 -1.54272 -1.54272 -1.62839 -1.54272 -1.62839 -1.62839 -1.71407 -1.62839 -1.71407 -1.71407 -1.79977 -1.71407 -1.79977 -1.79977 -1.88548 -1.79977 -1.88548 -1.88548 -1.97121 -1.88548 -1.97121 -1.97121 -2.05695 -1.97121 -2.05695 2.05695 1.97121 2.05695 1.97121 1.97121 1.88548 1.97121 1.88548 1.88548 1.79977 1.88548 1.79977 1.79977 1.71407 1.79977 1.71407 1.71407 1.62839 1.71407 1.62839 1.62839 1.54272 1.62839 1.54272 1.54272 1.45704 1.54272 1.45704 1.45704 1.37136 1.45704 1.37136 1.37136 1.28566 1.37136 1.28566 1.28566 1.19995 1.28566 1.19995 1.19995 1.11422 1.19995 1.11422 1.11422 1.02848 1.11422 1.02848 1.02848 0.942737 1.02848 0.942738 0.942737 0.857006 0.942738 0.857007 0.857006 0.77129 0.857007 0.771292 0.77129 0.685593 0.771292 0.685594 0.685593 0.599911 0.685594 0.599912 0.599911 0.514238 0.599912 0.514238 0.514238 0.428566 0.514238 0.428565 0.428566 0.342884 0.428565 0.342882 0.342884 0.257186 0.342882 0.257185 0.257186 0.171471 0.257185 0.171469 0.171471 0.08574 0.171469 0.0857391 0.08574 0 0.0857391 0 0 -0.08574 0 -0.0857391 -0.08574 -0.171471 -0.0857391 -0.171469 -0.171471 -0.257186 -0.171469 -0.257185 -0.257186 -0.342884 -0.257185 -0.342882 -0.342884 -0.428566 -0.342882 -0.428565 -0.428566 -0.514238 -0.428565 -0.514238 -0.514238 -0.599911 -0.514238 -0.599912 -0.599911 -0.685593 -0.599912 -0.685594 -0.685593 -0.77129 -0.685594 -0.771292 -0.77129 -0.857006 -0.771292 -0.857007 -0.857006 -0.942737 -0.857007 -0.942738 -0.942737 -1.02848 -0.942738 -1.02848 -1.02848 -1.11422 -1.02848 -1.11422 -1.11422 -1.19995 -1.11422 -1.19995 -1.19995 -1.28566 -1.19995 -1.28566 -1.28566 -1.37136 -1.28566 -1.37136 -1.37136 -1.45704 -1.37136 -1.45704 -1.45704 -1.54272 -1.45704 -1.54272 -1.54272 -1.62839 -1.54272 -1.62839 -1.62839 -1.71407 -1.62839 -1.71407 -1.71407 -1.79977 -1.71407 -1.79977 -1.79977 -1.88548 -1.79977 -1.88548 -1.88548 -1.97121 -1.88548 -1.97121 -1.97121 -2.05695 -1.97121 -2.05695 2.05695 1.97121 2.05695 1.97122 1.97121 1.88548 1.97122 1.88549 1.88548 1.79977 1.88549 1.79977 1.79977 1.71407 1.79977 1.71407 1.71407 1.62839 1.71407 1.62839 1.62839 1.54272 1.62839 1.54272 1.54272 1.45704 1.54272 1.45704 1.45704 1.37136 1.45704 1.37136 1.37136 1.28566 1.37136 1.28566 1.28566 1.19995 1.28566 1.19994 1.19995 1.11422 1.19994 1.11421 1.11422 1.02848 1.11421 1.02848 1.02848 0.942738 1.02848 0.942739 0.942738 0.857007 0.942739 0.85701 0.857007 0.771292 0.85701 0.771295 0.771292 0.685594 0.771295 0.685597 0.685594 0.599912 0.685597 0.599913 0.599912 0.514238 0.599913 0.514238 0.514238 0.428565 0.514238 0.428563 0.428565 0.342882 0.428563 0.34288 0.342882 0.257185 0.34288 0.257182 0.257185 0.171469 0.257182 0.171467 0.171469 0.0857391 0.171467 0.0857376 0.0857391 0 0.0857376 0 0 -0.0857391 0 -0.0857376 -0.0857391 -0.171469 -0.0857376 -0.171467 -0.171469 -0.257185 -0.171467 -0.257182 -0.257185 -0.342882 -0.257182 -0.34288 -0.342882 -0.428565 -0.34288 -0.428563 -0.428565 -0.514238 -0.428563 -0.514238 -0.514238 -0.599912 -0.514238 -0.599913 -0.599912 -0.685594 -0.599913 -0.685597 -0.685594 -0.771292 -0.685597 -0.771295 -0.771292 -0.857007 -0.771295 -0.85701 -0.857007 -0.942738 -0.85701 -0.942739 -0.942738 -1.02848 -0.942739 -1.02848 -1.02848 -1.11422 -1.02848 -1.11421 -1.11422 -1.19995 -1.11421 -1.19994 -1.19995 -1.28566 -1.19994 -1.28566 -1.28566 -1.37136 -1.28566 -1.37136 -1.37136 -1.45704 -1.37136 -1.45704 -1.45704 -1.54272 -1.45704 -1.54272 -1.54272 -1.62839 -1.54272 -1.62839 -1.62839 -1.71407 -1.62839 -1.71407 -1.71407 -1.79977 -1.71407 -1.79977 -1.79977 -1.88548 -1.79977 -1.88549 -1.88548 -1.97121 -1.88549 -1.97122 -1.97121 -2.05695 -1.97122 -2.05695 2.05695 1.97122 2.05695 1.97122 1.97122 1.88549 1.97122 1.88549 1.88549 1.79977 1.88549 1.79978 1.79977 1.71407 1.79978 1.71408 1.71407 1.62839 1.71408 1.62839 1.62839 1.54272 1.62839 1.54272 1.54272 1.45704 1.54272 1.45704 1.45704 1.37136 1.45704 1.37135 1.37136 1.28566 1.37135 1.28565 1.28566 1.19994 1.28565 1.19994 1.19994 1.11421 1.19994 1.11421 1.11421 1.02848 1.11421 1.02848 1.02848 0.942739 1.02848 0.942741 0.942739 0.85701 0.942741 0.857013 0.85701 0.771295 0.857013 0.771299 0.771295 0.685597 0.771299 0.685601 0.685597 0.599913 0.685601 0.599916 0.599913 0.514238 0.599916 0.514238 0.514238 0.428563 0.514238 0.428561 0.428563 0.34288 0.428561 0.342876 0.34288 0.257182 0.342876 0.257177 0.257182 0.171467 0.257177 0.171463 0.171467 0.0857376 0.171463 0.0857355 0.0857376 0 0.0857355 0 0 -0.0857376 0 -0.0857355 -0.0857376 -0.171467 -0.0857355 -0.171463 -0.171467 -0.257182 -0.171463 -0.257177 -0.257182 -0.34288 -0.257177 -0.342876 -0.34288 -0.428563 -0.342876 -0.428561 -0.428563 -0.514238 -0.428561 -0.514238 -0.514238 -0.599913 -0.514238 -0.599916 -0.599913 -0.685597 -0.599916 -0.685601 -0.685597 -0.771295 -0.685601 -0.771299 -0.771295 -0.85701 -0.771299 -0.857013 -0.85701 -0.942739 -0.857013 -0.942741 -0.942739 -1.02848 -0.942741 -1.02848 -1.02848 -1.11421 -1.02848 -1.11421 -1.11421 -1.19994 -1.11421 -1.19994 -1.19994 -1.28566 -1.19994 -1.28565 -1.28566 -1.37136 -1.28565 -1.37135 -1.37136 -1.45704 -1.37135 -1.45704 -1.45704 -1.54272 -1.45704 -1.54272 -1.54272 -1.62839 -1.54272 -1.62839 -1.62839 -1.71407 -1.62839 -1.71408 -1.71407 -1.79977 -1.71408 -1.79978 -1.79977 -1.88549 -1.79978 -1.88549 -1.88549 -1.97122 -1.88549 -1.97122 -1.97122 -2.05695 -1.97122 -2.05695 2.05695 1.97122 2.05695 1.97122 1.97122 1.88549 1.97122 1.8855 1.88549 1.79978 1.8855 1.79978 1.79978 1.71408 1.79978 1.71408 1.71408 1.62839 1.71408 1.6284 1.62839 1.54272 1.6284 1.54272 1.54272 1.45704 1.54272 1.45703 1.45704 1.37135 1.45703 1.37135 1.37135 1.28565 1.37135 1.28565 1.28565 1.19994 1.28565 1.19993 1.19994 1.11421 1.19993 1.11421 1.11421 1.02848 1.11421 1.02848 1.02848 0.942741 1.02848 0.942744 0.942741 0.857013 0.942744 0.857019 0.857013 0.771299 0.857019 0.771305 0.771299 0.685601 0.771305 0.685606 0.685601 0.599916 0.685606 0.599919 0.599916 0.514238 0.599919 0.514238 0.514238 0.428561 0.514238 0.428558 0.428561 0.342876 0.428558 0.342871 0.342876 0.257177 0.342871 0.257171 0.257177 0.171463 0.257171 0.171458 0.171463 0.0857355 0.171458 0.0857324 0.0857355 0 0.0857324 0 0 -0.0857355 0 -0.0857324 -0.0857355 -0.171463 -0.0857324 -0.171458 -0.171463 -0.257177 -0.171458 -0.257171 -0.257177 -0.342876 -0.257171 -0.342871 -0.342876 -0.428561 -0.342871 -0.428558 -0.428561 -0.514238 -0.428558 -0.514238 -0.514238 -0.599916 -0.514238 -0.599919 -0.599916 -0.685601 -0.599919 -0.685606 -0.685601 -0.771299 -0.685606 -0.771305 -0.771299 -0.857013 -0.771305 -0.857019 -0.857013 -0.942741 -0.857019 -0.942744 -0.942741 -1.02848 -0.942744 -1.02848 -1.02848 -1.11421 -1.02848 -1.11421 -1.11421 -1.19994 -1.11421 -1.19993 -1.19994 -1.28565 -1.19993 -1.28565 -1.28565 -1.37135 -1.28565 -1.37135 -1.37135 -1.45704 -1.37135 -1.45703 -1.45704 -1.54272 -1.45703 -1.54272 -1.54272 -1.62839 -1.54272 -1.6284 -1.62839 -1.71408 -1.6284 -1.71408 -1.71408 -1.79978 -1.71408 -1.79978 -1.79978 -1.88549 -1.79978 -1.8855 -1.88549 -1.97122 -1.8855 -1.97122 -1.97122 -2.05695 -1.97122 -2.05695 2.05695 1.97122 2.05695 1.97123 1.97122 1.8855 1.97123 1.8855 1.8855 1.79978 1.8855 1.79979 1.79978 1.71408 1.79979 1.71409 1.71408 1.6284 1.71409 1.6284 1.6284 1.54272 1.6284 1.54272 1.54272 1.45703 1.54272 1.45703 1.45703 1.37135 1.45703 1.37134 1.37135 1.28565 1.37134 1.28564 1.28565 1.19993 1.28564 1.19993 1.19993 1.11421 1.19993 1.1142 1.11421 1.02848 1.1142 1.02848 1.02848 0.942744 1.02848 0.942749 0.942744 0.857019 0.942749 0.857026 0.857019 0.771305 0.857026 0.771314 0.771305 0.685606 0.771314 0.685614 0.685606 0.599919 0.685614 0.599923 0.599919 0.514238 0.599923 0.514238 0.514238 0.428558 0.514238 0.428554 0.428558 0.342871 0.428554 0.342863 0.342871 0.257171 0.342863 0.257163 0.257171 0.171458 0.257163 0.17145 0.171458 0.0857324 0.17145 0.0857281 0.0857324 0 0.0857281 0 0 -0.0857324 0 -0.0857281 -0.0857324 -0.171458 -0.0857281 -0.17145 -0.171458 -0.257171 -0.17145 -0.257163 -0.257171 -0.342871 -0.257163 -0.342863 -0.342871 -0.428558 -0.342863 -0.428554 -0.428558 -0.514238 -0.428554 -0.514238 -0.514238 -0.599919 -0.514238 -0.599923 -0.599919 -0.685606 -0.599923 -0.685614 -0.685606 -0.771305 -0.685614 -0.771314 -0.771305 -0.857019 -0.771314 -0.857026 -0.857019 -0.942744 -0.857026 -0.942749 -0.942744 -1.02848 -0.942749 -1.02848 -1.02848 -1.11421 -1.02848 -1.1142 -1.11421 -1.19993 -1.1142 -1.19993 -1.19993 -1.28565 -1.19993 -1.28564 -1.28565 -1.37135 -1.28564 -1.37134 -1.37135 -1.45703 -1.37134 -1.45703 -1.45703 -1.54272 -1.45703 -1.54272 -1.54272 -1.6284 -1.54272 -1.6284 -1.6284 -1.71408 -1.6284 -1.71409 -1.71408 -1.79978 -1.71409 -1.79979 -1.79978 -1.8855 -1.79979 -1.8855 -1.8855 -1.97122 -1.8855 -1.97123 -1.97122 -2.05695 -1.97123 -2.05695 2.05695 1.97123 2.05695 1.97123 1.97123 1.8855 1.97123 1.88551 1.8855 1.79979 1.88551 1.7998 1.79979 1.71409 1.7998 1.7141 1.71409 1.6284 1.7141 1.62841 1.6284 1.54272 1.62841 1.54272 1.54272 1.45703 1.54272 1.45702 1.45703 1.37134 1.45702 1.37133 1.37134 1.28564 1.37133 1.28563 1.28564 1.19993 1.28563 1.19992 1.19993 1.1142 1.19992 1.1142 1.1142 1.02848 1.1142 1.02848 1.02848 0.942749 1.02848 0.942755 0.942749 0.857026 0.942755 0.857037 0.857026 0.771314 0.857037 0.771326 0.771314 0.685614 0.771326 0.685624 0.685614 0.599923 0.685624 0.599929 0.599923 0.514238 0.599929 0.514238 0.514238 0.428554 0.514238 0.428548 0.428554 0.342863 0.428548 0.342853 0.342863 0.257163 0.342853 0.257151 0.257163 0.17145 0.257151 0.17144 0.17145 0.0857281 0.17144 0.0857221 0.0857281 0 0.0857221 0 0 -0.0857281 0 -0.0857221 -0.0857281 -0.17145 -0.0857221 -0.17144 -0.17145 -0.257163 -0.17144 -0.257151 -0.257163 -0.342863 -0.257151 -0.342853 -0.342863 -0.428554 -0.342853 -0.428548 -0.428554 -0.514238 -0.428548 -0.514238 -0.514238 -0.599923 -0.514238 -0.599929 -0.599923 -0.685614 -0.599929 -0.685624 -0.685614 -0.771314 -0.685624 -0.771326 -0.771314 -0.857026 -0.771326 -0.857037 -0.857026 -0.942749 -0.857037 -0.942755 -0.942749 -1.02848 -0.942755 -1.02848 -1.02848 -1.1142 -1.02848 -1.1142 -1.1142 -1.19993 -1.1142 -1.19992 -1.19993 -1.28564 -1.19992 -1.28563 -1.28564 -1.37134 -1.28563 -1.37133 -1.37134 -1.45703 -1.37133 -1.45702 -1.45703 -1.54272 -1.45702 -1.54272 -1.54272 -1.6284 -1.54272 -1.62841 -1.6284 -1.71409 -1.62841 -1.7141 -1.71409 -1.79979 -1.7141 -1.7998 -1.79979 -1.8855 -1.7998 -1.88551 -1.8855 -1.97123 -1.88551 -1.97123 -1.97123 -2.05695 -1.97123 -2.05695 2.05695 1.97123 2.05695 1.97124 1.97123 1.88551 1.97124 1.88553 1.88551 1.7998 1.88553 1.79982 1.7998 1.7141 1.79982 1.71411 1.7141 1.62841 1.71411 1.62841 1.62841 1.54272 1.62841 1.54272 1.54272 1.45702 1.54272 1.45702 1.45702 1.37133 1.45702 1.37132 1.37133 1.28563 1.37132 1.28561 1.28563 1.19992 1.28561 1.1999 1.19992 1.1142 1.1999 1.11419 1.1142 1.02848 1.11419 1.02848 1.02848 0.942755 1.02848 0.942763 0.942755 0.857037 0.942763 0.857051 0.857037 0.771326 0.857051 0.771343 0.771326 0.685624 0.771343 0.685638 0.685624 0.599929 0.685638 0.599937 0.599929 0.514238 0.599937 0.514238 0.514238 0.428548 0.514238 0.428539 0.428548 0.342853 0.428539 0.342839 0.342853 0.257151 0.342839 0.257134 0.257151 0.17144 0.257134 0.171426 0.17144 0.0857221 0.171426 0.0857139 0.0857221 0 0.0857139 0 0 -0.0857221 0 -0.0857139 -0.0857221 -0.17144 -0.0857139 -0.171426 -0.17144 -0.257151 -0.171426 -0.257134 -0.257151 -0.342853 -0.257134 -0.342839 -0.342853 -0.428548 -0.342839 -0.428539 -0.428548 -0.514238 -0.428539 -0.514238 -0.514238 -0.599929 -0.514238 -0.599937 -0.599929 -0.685624 -0.599937 -0.685638 -0.685624 -0.771326 -0.685638 -0.771343 -0.771326 -0.857037 -0.771343 -0.857051 -0.857037 -0.942755 -0.857051 -0.942763 -0.942755 -1.02848 -0.942763 -1.02848 -1.02848 -1.1142 -1.02848 -1.11419 -1.1142 -1.19992 -1.11419 -1.1999 -1.19992 -1.28563 -1.1999 -1.28561 -1.28563 -1.37133 -1.28561 -1.37132 -1.37133 -1.45702 -1.37132 -1.45702 -1.45702 -1.54272 -1.45702 -1.54272 -1.54272 -1.62841 -1.54272 -1.62841 -1.62841 -1.7141 -1.62841 -1.71411 -1.7141 -1.7998 -1.71411 -1.79982 -1.7998 -1.88551 -1.79982 -1.88553 -1.88551 -1.97123 -1.88553 -1.97124 -1.97123 -2.05695 -1.97124 -2.05695 2.05695 1.97124 2.05695 1.97125 1.97124 1.88553 1.97125 1.88555 1.88553 1.79982 1.88555 1.79984 1.79982 1.71411 1.79984 1.71413 1.71411 1.62841 1.71413 1.62842 1.62841 1.54272 1.62842 1.54272 1.54272 1.45702 1.54272 1.45701 1.45702 1.37132 1.45701 1.3713 1.37132 1.28561 1.3713 1.28559 1.28561 1.1999 1.28559 1.19988 1.1999 1.11419 1.19988 1.11418 1.11419 1.02848 1.11418 1.02848 1.02848 0.942763 1.02848 0.942774 0.942763 0.857051 0.942774 0.85707 0.857051 0.771343 0.85707 0.771364 0.771343 0.685638 0.771364 0.685657 0.685638 0.599937 0.685657 0.599948 0.599937 0.514238 0.599948 0.514238 0.514238 0.428539 0.514238 0.428529 0.428539 0.342839 0.428529 0.34282 0.342839 0.257134 0.34282 0.257112 0.257134 0.171426 0.257112 0.171407 0.171426 0.0857139 0.171407 0.0857029 0.0857139 0 0.0857029 0 0 -0.0857139 0 -0.0857029 -0.0857139 -0.171426 -0.0857029 -0.171407 -0.171426 -0.257134 -0.171407 -0.257112 -0.257134 -0.342839 -0.257112 -0.34282 -0.342839 -0.428539 -0.34282 -0.428529 -0.428539 -0.514238 -0.428529 -0.514238 -0.514238 -0.599937 -0.514238 -0.599948 -0.599937 -0.685638 -0.599948 -0.685657 -0.685638 -0.771343 -0.685657 -0.771364 -0.771343 -0.857051 -0.771364 -0.85707 -0.857051 -0.942763 -0.85707 -0.942774 -0.942763 -1.02848 -0.942774 -1.02848 -1.02848 -1.11419 -1.02848 -1.11418 -1.11419 -1.1999 -1.11418 -1.19988 -1.1999 -1.28561 -1.19988 -1.28559 -1.28561 -1.37132 -1.28559 -1.3713 -1.37132 -1.45702 -1.3713 -1.45701 -1.45702 -1.54272 -1.45701 -1.54272 -1.54272 -1.62841 -1.54272 -1.62842 -1.62841 -1.71411 -1.62842 -1.71413 -1.71411 -1.79982 -1.71413 -1.79984 -1.79982 -1.88553 -1.79984 -1.88555 -1.88553 -1.97124 -1.88555 -1.97125 -1.97124 -2.05695 -1.97125 -2.05695 2.05695 1.97125 2.05695 1.97126 1.97125 1.88555 1.97126 1.88557 1.88555 1.79984 1.88557 1.79987 1.79984 1.71413 1.79987 1.71416 1.71413 1.62842 1.71416 1.62844 1.62842 1.54272 1.62844 1.54272 1.54272 1.45701 1.54272 1.45699 1.45701 1.3713 1.45699 1.37127 1.3713 1.28559 1.37127 1.28556 1.28559 1.19988 1.28556 1.19986 1.19988 1.11418 1.19986 1.11417 1.11418 1.02848 1.11417 1.02848 1.02848 0.942774 1.02848 0.942788 0.942774 0.85707 0.942788 0.857095 0.85707 0.771364 0.857095 0.771393 0.771364 0.685657 0.771393 0.685682 0.685657 0.599948 0.685682 0.599963 0.599948 0.514238 0.599963 0.514238 0.514238 0.428529 0.514238 0.428514 0.428529 0.34282 0.428514 0.342794 0.34282 0.257112 0.342794 0.257083 0.257112 0.171407 0.257083 0.171382 0.171407 0.0857029 0.171382 0.0856884 0.0857029 0 0.0856884 0 0 -0.0857029 0 -0.0856884 -0.0857029 -0.171407 -0.0856884 -0.171382 -0.171407 -0.257112 -0.171382 -0.257083 -0.257112 -0.34282 -0.257083 -0.342794 -0.34282 -0.428529 -0.342794 -0.428514 -0.428529 -0.514238 -0.428514 -0.514238 -0.514238 -0.599948 -0.514238 -0.599963 -0.599948 -0.685657 -0.599963 -0.685682 -0.685657 -0.771364 -0.685682 -0.771393 -0.771364 -0.85707 -0.771393 -0.857095 -0.85707 -0.942774 -0.857095 -0.942788 -0.942774 -1.02848 -0.942788 -1.02848 -1.02848 -1.11418 -1.02848 -1.11417 -1.11418 -1.19988 -1.11417 -1.19986 -1.19988 -1.28559 -1.19986 -1.28556 -1.2