# vtk DataFile Version 3.0
#This file was generated by the deal.II library on 2017/9/27 at 13:18:24
ASCII
DATASET UNSTRUCTURED_GRID

POINTS 2688 double
-3.98627 -7.19575e-23 0
-3.84483 0 0
-3.98627 0.0952638 0
-3.84449 0.0939657 0
-3.84483 0 0
-3.70121 0 0
-3.84449 0.0939657 0
-3.70066 0.0898383 0
-3.70121 0 0
-3.55199 0 0
-3.70066 0.0898383 0
-3.55144 0.0824797 0
-3.55199 0 0
-3.39192 0 0
-3.55144 0.0824797 0
-3.39156 0.07233 0
-3.39192 0 0
-3.21557 0 0
-3.39156 0.07233 0
-3.21543 0.0621679 0
-3.21557 0 0
-3.02411 0 0
-3.21543 0.0621679 0
-3.02405 0.0571895 0
-3.02411 0 0
-2.83164 0 0
-3.02405 0.0571895 0
-2.83166 0.0609251 0
-2.83164 0 0
-2.65252 0 0
-2.83166 0.0609251 0
-2.65279 0.069737 0
-2.65252 0 0
-2.48808 0 0
-2.65279 0.069737 0
-2.48864 0.0783354 0
-2.48808 0 0
-2.33252 0 0
-2.48864 0.0783354 0
-2.33321 0.083947 0
-2.33252 0 0
-2.17986 0 0
-2.33321 0.083947 0
-2.1805 0.0863117 0
-2.17986 0 0
-2.02605 0 0
-2.1805 0.0863117 0
-2.02653 0.0862656 0
-2.02605 0 0
-1.86894 0 0
-2.02653 0.0862656 0
-1.86922 0.0847932 0
-1.86894 0 0
-1.70771 0 0
-1.86922 0.0847932 0
-1.70784 0.0826958 0
-1.70771 0 0
-1.54249 0 0
-1.70784 0.0826958 0
-1.54249 0.0805435 0
-1.54249 0 0
-1.37393 0 0
-1.54249 0.0805435 0
-1.37386 0.0786985 0
-1.37393 0 0
-1.20299 0 0
-1.37386 0.0786985 0
-1.20289 0.0773454 0
-1.20299 0 0
-1.03069 0 0
-1.20289 0.0773454 0
-1.03059 0.0765234 0
-1.03069 0 0
-0.857916 0 0
-1.03059 0.0765234 0
-0.857826 0.0761662 0
-0.857916 0 0
-0.685295 0 0
-0.857826 0.0761662 0
-0.685226 0.0761466 0
-0.685295 0 0
-0.513187 0 0
-0.685226 0.0761466 0
-0.51314 0.0763179 0
-0.513187 0 0
-0.341689 0 0
-0.51314 0.0763179 0
-0.341661 0.0765452 0
-0.341689 0 0
-0.170702 0 0
-0.341661 0.0765452 0
-0.170689 0.0767245 0
-0.170702 0 0
0 0 0
-0.170689 0.0767245 0
0 0.0767915 0
0 0 0
0.170702 5.43357e-24 0
0 0.0767915 0
0.170689 0.0767245 0
0.170702 5.43357e-24 0
0.341689 1.22123e-23 0
0.170689 0.0767245 0
0.341661 0.0765452 0
0.341689 1.22123e-23 0
0.513187 -3.0755e-23 0
0.341661 0.0765452 0
0.51314 0.0763179 0
0.513187 -3.0755e-23 0
0.685295 -1.72533e-23 0
0.51314 0.0763179 0
0.685226 0.0761466 0
0.685295 -1.72533e-23 0
0.857916 -4.37052e-23 0
0.685226 0.0761466 0
0.857826 0.0761662 0
0.857916 -4.37052e-23 0
1.03069 1.68147e-23 0
0.857826 0.0761662 0
1.03059 0.0765234 0
1.03069 1.68147e-23 0
1.20299 2.27953e-23 0
1.03059 0.0765234 0
1.20289 0.0773454 0
1.20299 2.27953e-23 0
1.37393 8.69772e-24 0
1.20289 0.0773454 0
1.37386 0.0786985 0
1.37393 8.69772e-24 0
1.54249 -4.93348e-23 0
1.37386 0.0786985 0
1.54249 0.0805435 0
1.54249 -4.93348e-23 0
1.70771 -2.21923e-23 0
1.54249 0.0805435 0
1.70784 0.0826958 0
1.70771 -2.21923e-23 0
1.86894 -4.89994e-23 0
1.70784 0.0826958 0
1.86922 0.0847932 0
1.86894 -4.89994e-23 0
2.02605 -1.40893e-23 0
1.86922 0.0847932 0
2.02653 0.0862656 0
2.02605 -1.40893e-23 0
2.17986 6.7442e-23 0
2.02653 0.0862656 0
2.1805 0.0863117 0
2.17986 6.7442e-23 0
2.33252 4.32421e-23 0
2.1805 0.0863117 0
2.33321 0.083947 0
2.33252 4.32421e-23 0
2.48808 3.59071e-23 0
2.33321 0.083947 0
2.48864 0.0783354 0
2.48808 3.59071e-23 0
2.65252 1.66075e-23 0
2.48864 0.0783354 0
2.65279 0.069737 0
2.65252 1.66075e-23 0
2.83164 3.24305e-23 0
2.65279 0.069737 0
2.83166 0.0609251 0
2.83164 3.24305e-23 0
3.02411 1.50751e-23 0
2.83166 0.0609251 0
3.02405 0.0571895 0
3.02411 1.50751e-23 0
3.21557 2.28737e-23 0
3.02405 0.0571895 0
3.21543 0.0621679 0
3.21557 2.28737e-23 0
3.39192 -8.28462e-24 0
3.21543 0.0621679 0
3.39156 0.07233 0
3.39192 -8.28462e-24 0
3.55199 -3.08701e-23 0
3.39156 0.07233 0
3.55144 0.0824797 0
3.55199 -3.08701e-23 0
3.70121 -5.27971e-23 0
3.55144 0.0824797 0
3.70066 0.0898383 0
3.70121 -5.27971e-23 0
3.84483 4.204e-23 0
3.70066 0.0898383 0
3.84449 0.0939657 0
3.84483 4.204e-23 0
3.98627 -7.19575e-23 0
3.84449 0.0939657 0
3.98627 0.0952638 0
-3.98627 0.0952638 0
-3.84449 0.0939657 0
-3.98627 0.18855 0
-3.84347 0.18614 0
-3.84449 0.0939657 0
-3.70066 0.0898383 0
-3.84347 0.18614 0
-3.69898 0.17845 0
-3.70066 0.0898383 0
-3.55144 0.0824797 0
-3.69898 0.17845 0
-3.54977 0.164619 0
-3.55144 0.0824797 0
-3.39156 0.07233 0
-3.54977 0.164619 0
-3.3905 0.145286 0
-3.39156 0.07233 0
-3.21543 0.0621679 0
-3.3905 0.145286 0
-3.21505 0.12561 0
-3.21543 0.0621679 0
-3.02405 0.0571895 0
-3.21505 0.12561 0
-3.02387 0.115842 0
-3.02405 0.0571895 0
-2.83166 0.0609251 0
-3.02387 0.115842 0
-2.8317 0.123248 0
-2.83166 0.0609251 0
-2.65279 0.069737 0
-2.8317 0.123248 0
-2.65362 0.140384 0
-2.65279 0.069737 0
-2.48864 0.0783354 0
-2.65362 0.140384 0
-2.49029 0.156816 0
-2.48864 0.0783354 0
-2.33321 0.083947 0
-2.49029 0.156816 0
-2.33521 0.167374 0
-2.33321 0.083947 0
-2.1805 0.0863117 0
-2.33521 0.167374 0
-2.18231 0.171744 0
-2.1805 0.0863117 0
-2.02653 0.0862656 0
-2.18231 0.171744 0
-2.02785 0.171582 0
-2.02653 0.0862656 0
-1.86922 0.0847932 0
-2.02785 0.171582 0
-1.87 0.168755 0
-1.86922 0.0847932 0
-1.70784 0.0826958 0
-1.87 0.168755 0
-1.70815 0.164766 0
-1.70784 0.0826958 0
-1.54249 0.0805435 0
-1.70815 0.164766 0
-1.54248 0.160683 0
-1.54249 0.0805435 0
-1.37386 0.0786985 0
-1.54248 0.160683 0
-1.37366 0.157188 0
-1.37386 0.0786985 0
-1.20289 0.0773454 0
-1.37366 0.157188 0
-1.20261 0.15463 0
-1.20289 0.0773454 0
-1.03059 0.0765234 0
-1.20261 0.15463 0
-1.0303 0.153082 0
-1.03059 0.0765234 0
-0.857826 0.0761662 0
-1.0303 0.153082 0
-0.857575 0.152416 0
-0.857826 0.0761662 0
-0.685226 0.0761466 0
-0.857575 0.152416 0
-0.685035 0.15239 0
-0.685226 0.0761466 0
-0.51314 0.0763179 0
-0.685035 0.15239 0
-0.513011 0.152723 0
-0.51314 0.0763179 0
-0.341661 0.0765452 0
-0.513011 0.152723 0
-0.341584 0.15316 0
-0.341661 0.0765452 0
-0.170689 0.0767245 0
-0.341584 0.15316 0
-0.170654 0.153503 0
-0.170689 0.0767245 0
0 0.0767915 0
-0.170654 0.153503 0
0 0.153631 0
0 0.0767915 0
0.170689 0.0767245 0
0 0.153631 0
0.170654 0.153503 0
0.170689 0.0767245 0
0.341661 0.0765452 0
0.170654 0.153503 0
0.341584 0.15316 0
0.341661 0.0765452 0
0.51314 0.0763179 0
0.341584 0.15316 0
0.513011 0.152723 0
0.51314 0.0763179 0
0.685226 0.0761466 0
0.513011 0.152723 0
0.685035 0.15239 0
0.685226 0.0761466 0
0.857826 0.0761662 0
0.685035 0.15239 0
0.857575 0.152416 0
0.857826 0.0761662 0
1.03059 0.0765234 0
0.857575 0.152416 0
1.0303 0.153082 0
1.03059 0.0765234 0
1.20289 0.0773454 0
1.0303 0.153082 0
1.20261 0.15463 0
1.20289 0.0773454 0
1.37386 0.0786985 0
1.20261 0.15463 0
1.37366 0.157188 0
1.37386 0.0786985 0
1.54249 0.0805435 0
1.37366 0.157188 0
1.54248 0.160683 0
1.54249 0.0805435 0
1.70784 0.0826958 0
1.54248 0.160683 0
1.70815 0.164766 0
1.70784 0.0826958 0
1.86922 0.0847932 0
1.70815 0.164766 0
1.87 0.168755 0
1.86922 0.0847932 0
2.02653 0.0862656 0
1.87 0.168755 0
2.02785 0.171582 0
2.02653 0.0862656 0
2.1805 0.0863117 0
2.02785 0.171582 0
2.18231 0.171744 0
2.1805 0.0863117 0
2.33321 0.083947 0
2.18231 0.171744 0
2.33521 0.167374 0
2.33321 0.083947 0
2.48864 0.0783354 0
2.33521 0.167374 0
2.49029 0.156816 0
2.48864 0.0783354 0
2.65279 0.069737 0
2.49029 0.156816 0
2.65362 0.140384 0
2.65279 0.069737 0
2.83166 0.0609251 0
2.65362 0.140384 0
2.8317 0.123248 0
2.83166 0.0609251 0
3.02405 0.0571895 0
2.8317 0.123248 0
3.02387 0.115842 0
3.02405 0.0571895 0
3.21543 0.0621679 0
3.02387 0.115842 0
3.21505 0.12561 0
3.21543 0.0621679 0
3.39156 0.07233 0
3.21505 0.12561 0
3.3905 0.145286 0
3.39156 0.07233 0
3.55144 0.0824797 0
3.3905 0.145286 0
3.54977 0.164619 0
3.55144 0.0824797 0
3.70066 0.0898383 0
3.54977 0.164619 0
3.69898 0.17845 0
3.70066 0.0898383 0
3.84449 0.0939657 0
3.69898 0.17845 0
3.84347 0.18614 0
3.84449 0.0939657 0
3.98627 0.0952638 0
3.84347 0.18614 0
3.98627 0.18855 0
-3.98627 0.18855 0
-3.84347 0.18614 0
-3.98627 0.279973 0
-3.84179 0.276651 0
-3.84347 0.18614 0
-3.69898 0.17845 0
-3.84179 0.276651 0
-3.69621 0.265986 0
-3.69898 0.17845 0
-3.54977 0.164619 0
-3.69621 0.265986 0
-3.54697 0.246576 0
-3.54977 0.164619 0
-3.3905 0.145286 0
-3.54697 0.246576 0
-3.38873 0.21892 0
-3.3905 0.145286 0
-3.21505 0.12561 0
-3.38873 0.21892 0
-3.21448 0.190114 0
-3.21505 0.12561 0
-3.02387 0.115842 0
-3.21448 0.190114 0
-3.0236 0.175535 0
-3.02387 0.115842 0
-2.8317 0.123248 0
-3.0236 0.175535 0
-2.83175 0.186766 0
-2.8317 0.123248 0
-2.65362 0.140384 0
-2.83175 0.186766 0
-2.65499 0.212006 0
-2.65362 0.140384 0
-2.49029 0.156816 0
-2.65499 0.212006 0
-2.49301 0.235604 0
-2.49029 0.156816 0
-2.33521 0.167374 0
-2.49301 0.235604 0
-2.33842 0.250427 0
-2.33521 0.167374 0
-2.18231 0.171744 0
-2.33842 0.250427 0
-2.18515 0.256397 0
-2.18231 0.171744 0
-2.02785 0.171582 0
-2.18515 0.256397 0
-2.02989 0.256011 0
-2.02785 0.171582 0
-1.87 0.168755 0
-2.02989 0.256011 0
-1.87117 0.251918 0
-1.87 0.168755 0
-1.70815 0.164766 0
-1.87117 0.251918 0
-1.70861 0.246219 0
-1.70815 0.164766 0
-1.54248 0.160683 0
-1.70861 0.246219 0
-1.54244 0.240411 0
-1.54248 0.160683 0
-1.37366 0.157188 0
-1.54244 0.240411 0
-1.37333 0.235454 0
-1.37366 0.157188 0
-1.20261 0.15463 0
-1.37333 0.235454 0
-1.20216 0.231837 0
-1.20261 0.15463 0
-1.0303 0.153082 0
-1.20216 0.231837 0
-1.02984 0.22966 0
-1.0303 0.153082 0
-0.857575 0.152416 0
-1.02984 0.22966 0
-0.857185 0.228739 0
-0.857575 0.152416 0
-0.685035 0.15239 0
-0.857185 0.228739 0
-0.684741 0.228723 0
-0.685035 0.15239 0
-0.513011 0.152723 0
-0.684741 0.228723 0
-0.512813 0.229214 0
-0.513011 0.152723 0
-0.341584 0.15316 0
-0.512813 0.229214 0
-0.341468 0.229845 0
-0.341584 0.15316 0
-0.170654 0.153503 0
-0.341468 0.229845 0
-0.170602 0.230339 0
-0.170654 0.153503 0
0 0.153631 0
-0.170602 0.230339 0
0 0.230523 0
0 0.153631 0
0.170654 0.153503 0
0 0.230523 0
0.170602 0.230339 0
0.170654 0.153503 0
0.341584 0.15316 0
0.170602 0.230339 0
0.341468 0.229845 0
0.341584 0.15316 0
0.513011 0.152723 0
0.341468 0.229845 0
0.512813 0.229214 0
0.513011 0.152723 0
0.685035 0.15239 0
0.512813 0.229214 0
0.684741 0.228723 0
0.685035 0.15239 0
0.857575 0.152416 0
0.684741 0.228723 0
0.857185 0.228739 0
0.857575 0.152416 0
1.0303 0.153082 0
0.857185 0.228739 0
1.02984 0.22966 0
1.0303 0.153082 0
1.20261 0.15463 0
1.02984 0.22966 0
[...]
POINT_DATA 2688
SCALARS x1_displacement double 1
LOOKUP_TABLE default
1.6458 1.55257 1.6458 1.55291 1.55257 1.46152 1.55291 1.46207 1.46152 1.37607 1.46207 1.37662 1.37607 1.30147 1.37662 1.30183 1.30147 1.24315 1.30183 1.24329 1.24315 1.19994 1.24329 1.2 1.19994 1.15774 1.2 1.15772 1.15774 1.1022 1.15772 1.10193 1.1022 1.03197 1.10193 1.03141 1.03197 0.952859 1.03141 0.95217 0.952859 0.870852 0.95217 0.870213 0.870852 0.789989 0.870213 0.789511 0.789989 0.712434 0.789511 0.712146 0.712434 0.638988 0.712146 0.638864 0.638988 0.569543 0.638864 0.569538 0.569543 0.503433 0.569538 0.503499 0.503433 0.439699 0.503499 0.439797 0.439699 0.377327 0.439797 0.377429 0.377327 0.315434 0.377429 0.315524 0.315434 0.253384 0.315524 0.253453 0.253384 0.190822 0.253453 0.190869 0.190822 0.12765 0.190869 0.127678 0.12765 0.063968 0.127678 0.0639809 0.063968 0 0.0639809 0 0 -0.063968 0 -0.0639809 -0.063968 -0.12765 -0.0639809 -0.127678 -0.12765 -0.190822 -0.127678 -0.190869 -0.190822 -0.253384 -0.190869 -0.253453 -0.253384 -0.315434 -0.253453 -0.315524 -0.315434 -0.377327 -0.315524 -0.377429 -0.377327 -0.439699 -0.377429 -0.439797 -0.439699 -0.503433 -0.439797 -0.503499 -0.503433 -0.569543 -0.503499 -0.569538 -0.569543 -0.638988 -0.569538 -0.638864 -0.638988 -0.712434 -0.638864 -0.712146 -0.712434 -0.789989 -0.712146 -0.789511 -0.789989 -0.870852 -0.789511 -0.870213 -0.870852 -0.952859 -0.870213 -0.95217 -0.952859 -1.03197 -0.95217 -1.03141 -1.03197 -1.1022 -1.03141 -1.10193 -1.1022 -1.15774 -1.10193 -1.15772 -1.15774 -1.19994 -1.15772 -1.2 -1.19994 -1.24315 -1.2 -1.24329 -1.24315 -1.30147 -1.24329 -1.30183 -1.30147 -1.37607 -1.30183 -1.37662 -1.37607 -1.46152 -1.37662 -1.46207 -1.46152 -1.55257 -1.46207 -1.55291 -1.55257 -1.6458 -1.55291 -1.6458 1.6458 1.55291 1.6458 1.55393 1.55291 1.46207 1.55393 1.46375 1.46207 1.37662 1.46375 1.37829 1.37662 1.30183 1.37829 1.30289 1.30183 1.24329 1.30289 1.24367 1.24329 1.2 1.24367 1.20018 1.2 1.15772 1.20018 1.15768 1.15772 1.10193 1.15768 1.1011 1.10193 1.03141 1.1011 1.02976 1.03141 0.95217 1.02976 0.950175 0.95217 0.870213 0.950175 0.868404 0.870213 0.789511 0.868404 0.788188 0.789511 0.712146 0.788188 0.711367 0.712146 0.638864 0.711367 0.638546 0.638864 0.569538 0.638546 0.569546 0.569538 0.503499 0.569546 0.503699 0.503499 0.439797 0.503699 0.440081 0.439797 0.377429 0.440081 0.37772 0.377429 0.315524 0.37772 0.315775 0.315524 0.253453 0.315775 0.253644 0.253453 0.190869 0.253644 0.190998 0.190869 0.127678 0.190998 0.127755 0.127678 0.0639809 0.127755 0.0640158 0.0639809 0 0.0640158 0 0 -0.0639809 0 -0.0640158 -0.0639809 -0.127678 -0.0640158 -0.127755 -0.127678 -0.190869 -0.127755 -0.190998 -0.190869 -0.253453 -0.190998 -0.253644 -0.253453 -0.315524 -0.253644 -0.315775 -0.315524 -0.377429 -0.315775 -0.37772 -0.377429 -0.439797 -0.37772 -0.440081 -0.439797 -0.503499 -0.440081 -0.503699 -0.503499 -0.569538 -0.503699 -0.569546 -0.569538 -0.638864 -0.569546 -0.638546 -0.638864 -0.712146 -0.638546 -0.711367 -0.712146 -0.789511 -0.711367 -0.788188 -0.789511 -0.870213 -0.788188 -0.868404 -0.870213 -0.95217 -0.868404 -0.950175 -0.95217 -1.03141 -0.950175 -1.02976 -1.03141 -1.10193 -1.02976 -1.1011 -1.10193 -1.15772 -1.1011 -1.15768 -1.15772 -1.2 -1.15768 -1.20018 -1.2 -1.24329 -1.20018 -1.24367 -1.24329 -1.30183 -1.24367 -1.30289 -1.30183 -1.37662 -1.30289 -1.37829 -1.37662 -1.46207 -1.37829 -1.46375 -1.46207 -1.55291 -1.46375 -1.55393 -1.55291 -1.6458 -1.55393 -1.6458 1.6458 1.55393 1.6458 1.55561 1.55393 1.46375 1.55561 1.46652 1.46375 1.37829 1.46652 1.38109 1.37829 1.30289 1.38109 1.30466 1.30289 1.24367 1.30466 1.24424 1.24367 1.20018 1.24424 1.20045 1.20018 1.15768 1.20045 1.15763 1.15768 1.1011 1.15763 1.09973 1.1011 1.02976 1.09973 1.02704 1.02976 0.950175 1.02704 0.946965 0.950175 0.868404 0.946965 0.86556 0.868404 0.788188 0.86556 0.786151 0.788188 0.711367 0.786151 0.710195 0.711367 0.638546 0.710195 0.638089 0.638546 0.569546 0.638089 0.569587 0.569546 0.503699 0.569587 0.504031 0.503699 0.440081 0.504031 0.440534 0.440081 0.37772 0.440534 0.378177 0.37772 0.315775 0.378177 0.316165 0.315775 0.253644 0.316165 0.253938 0.253644 0.190998 0.253938 0.191196 0.190998 0.127755 0.191196 0.127871 0.127755 0.0640158 0.127871 0.0640681 0.0640158 0 0.0640681 0 0 -0.0640158 0 -0.0640681 -0.0640158 -0.127755 -0.0640681 -0.127871 -0.127755 -0.190998 -0.127871 -0.191196 -0.190998 -0.253644 -0.191196 -0.253938 -0.253644 -0.315775 -0.253938 -0.316165 -0.315775 -0.37772 -0.316165 -0.378177 -0.37772 -0.440081 -0.378177 -0.440534 -0.440081 -0.503699 -0.440534 -0.504031 -0.503699 -0.569546 -0.504031 -0.569587 -0.569546 -0.638546 -0.569587 -0.638089 -0.638546 -0.711367 -0.638089 -0.710195 -0.711367 -0.788188 -0.710195 -0.786151 -0.788188 -0.868404 -0.786151 -0.86556 -0.868404 -0.950175 -0.86556 -0.946965 -0.950175 -1.02976 -0.946965 -1.02704 -1.02976 -1.1011 -1.02704 -1.09973 -1.1011 -1.15768 -1.09973 -1.15763 -1.15768 -1.20018 -1.15763 -1.20045 -1.20018 -1.24367 -1.20045 -1.24424 -1.24367 -1.30289 -1.24424 -1.30466 -1.30289 -1.37829 -1.30466 -1.38109 -1.37829 -1.46375 -1.38109 -1.46652 -1.46375 -1.55393 -1.46652 -1.55561 -1.55393 -1.6458 -1.55561 -1.6458 1.6458 1.55561 1.6458 1.55794 1.55561 1.46652 1.55794 1.47044 1.46652 1.38109 1.47044 1.38515 1.38109 1.30466 1.38515 1.30727 1.30466 1.24424 1.30727 1.24506 1.24424 1.20045 1.24506 1.2008 1.20045 1.15763 1.2008 1.15752 1.15763 1.09973 1.15752 1.09769 1.09973 1.02704 1.09769 1.02318 1.02704 0.946965 1.02318 0.942572 0.946965 0.86556 0.942572 0.861798 0.86556 0.786151 0.861798 0.78354 0.786151 0.710195 0.78354 0.708746 0.710195 0.638089 0.708746 0.637571 0.638089 0.569587 0.637571 0.569703 0.569587 0.504031 0.569703 0.504506 0.504031 0.440534 0.504506 0.441151 0.440534 0.378177 0.441151 0.378783 0.378177 0.316165 0.378783 0.316675 0.316165 0.253938 0.316675 0.254316 0.253938 0.191196 0.254316 0.191446 0.191196 0.127871 0.191446 0.128015 0.127871 0.0640681 0.128015 0.0641318 0.0640681 0 0.0641318 0 0 -0.0640681 0 -0.0641318 -0.0640681 -0.127871 -0.0641318 -0.128015 -0.127871 -0.191196 -0.128015 -0.191446 -0.191196 -0.253938 -0.191446 -0.254316 -0.253938 -0.316165 -0.254316 -0.316675 -0.316165 -0.378177 -0.316675 -0.378783 -0.378177 -0.440534 -0.378783 -0.441151 -0.440534 -0.504031 -0.441151 -0.504506 -0.504031 -0.569587 -0.504506 -0.569703 -0.569587 -0.638089 -0.569703 -0.637571 -0.638089 -0.710195 -0.637571 -0.708746 -0.710195 -0.786151 -0.708746 -0.78354 -0.786151 -0.86556 -0.78354 -0.861798 -0.86556 -0.946965 -0.861798 -0.942572 -0.946965 -1.02704 -0.942572 -1.02318 -1.02704 -1.09973 -1.02318 -1.09769 -1.09973 -1.15763 -1.09769 -1.15752 -1.15763 -1.20045 -1.15752 -1.2008 -1.20045 -1.24424 -1.2008 -1.24506 -1.24424 -1.30466 -1.24506 -1.30727 -1.30466 -1.38109 -1.30727 -1.38515 -1.38109 -1.46652 -1.38515 -1.47044 -1.46652 -1.55561 -1.47044 -1.55794 -1.55561 -1.6458 -1.55794 -1.6458 1.6458 1.55794 1.6458 1.56096 1.55794 1.47044 1.56096 1.47563 1.47044 1.38515 1.47563 1.3907 1.38515 1.30727 1.3907 1.31098 1.30727 1.24506 1.31098 1.24622 1.24506 1.2008 1.24622 1.20124 1.2008 1.15752 1.20124 1.15725 1.15752 1.09769 1.15725 1.09475 1.09769 1.02318 1.09475 1.01799 1.02318 0.942572 1.01799 0.936985 0.942572 0.861798 0.936985 0.857233 0.861798 0.78354 0.857233 0.780504 0.78354 0.708746 0.780504 0.707152 0.708746 0.637571 0.707152 0.637086 0.637571 0.569703 0.637086 0.56995 0.569703 0.504506 0.56995 0.50515 0.504506 0.441151 0.50515 0.441932 0.441151 0.378783 0.441932 0.379527 0.378783 0.316675 0.379527 0.317283 0.316675 0.254316 0.317283 0.254756 0.254316 0.191446 0.254756 0.191728 0.191446 0.128015 0.191728 0.128172 0.128015 0.0641318 0.128172 0.0641998 0.0641318 0 0.0641998 0 0 -0.0641318 0 -0.0641998 -0.0641318 -0.128015 -0.0641998 -0.128172 -0.128015 -0.191446 -0.128172 -0.191728 -0.191446 -0.254316 -0.191728 -0.254756 -0.254316 -0.316675 -0.254756 -0.317283 -0.316675 -0.378783 -0.317283 -0.379527 -0.378783 -0.441151 -0.379527 -0.441932 -0.441151 -0.504506 -0.441932 -0.50515 -0.504506 -0.569703 -0.50515 -0.56995 -0.569703 -0.637571 -0.56995 -0.637086 -0.637571 -0.708746 -0.637086 -0.707152 -0.708746 -0.78354 -0.707152 -0.780504 -0.78354 -0.861798 -0.780504 -0.857233 -0.861798 -0.942572 -0.857233 -0.936985 -0.942572 -1.02318 -0.936985 -1.01799 -1.02318 -1.09769 -1.01799 -1.09475 -1.09769 -1.15752 -1.09475 -1.15725 -1.15752 -1.2008 -1.15725 -1.20124 -1.2008 -1.24506 -1.20124 -1.24622 -1.24506 -1.30727 -1.24622 -1.31098 -1.30727 -1.38515 -1.31098 -1.3907 -1.38515 -1.47044 -1.3907 -1.47563 -1.47044 -1.55794 -1.47563 -1.56096 -1.55794 -1.6458 -1.56096 -1.6458 1.6458 1.56096 1.6458 1.56466 1.56096 1.47563 1.56466 1.4822 1.47563 1.3907 1.4822 1.39809 1.3907 1.31098 1.39809 1.31623 1.31098 1.24622 1.31623 1.24793 1.24622 1.20124 1.24793 1.20174 1.20124 1.15725 1.20174 1.15662 1.15725 1.09475 1.15662 1.09052 1.09475 1.01799 1.09052 1.01121 1.01799 0.936985 1.01121 0.930186 0.936985 0.857233 0.930186 0.851998 0.857233 0.780504 0.851998 0.777212 0.780504 0.707152 0.777212 0.705558 0.707152 0.637086 0.705558 0.636742 0.637086 0.56995 0.636742 0.570397 0.56995 0.50515 0.570397 0.505997 0.50515 0.441932 0.505997 0.442888 0.441932 0.379527 0.442888 0.380399 0.379527 0.317283 0.380399 0.317971 0.317283 0.254756 0.317971 0.255235 0.254756 0.191728 0.255235 0.192022 0.191728 0.128172 0.192022 0.128328 0.128172 0.0641998 0.128328 0.0642637 0.0641998 0 0.0642637 0 0 -0.0641998 0 -0.0642637 -0.0641998 -0.128172 -0.0642637 -0.128328 -0.128172 -0.191728 -0.128328 -0.192022 -0.191728 -0.254756 -0.192022 -0.255235 -0.254756 -0.317283 -0.255235 -0.317971 -0.317283 -0.379527 -0.317971 -0.380399 -0.379527 -0.441932 -0.380399 -0.442888 -0.441932 -0.50515 -0.442888 -0.505997 -0.50515 -0.56995 -0.505997 -0.570397 -0.56995 -0.637086 -0.570397 -0.636742 -0.637086 -0.707152 -0.636742 -0.705558 -0.707152 -0.780504 -0.705558 -0.777212 -0.780504 -0.857233 -0.777212 -0.851998 -0.857233 -0.936985 -0.851998 -0.930186 -0.936985 -1.01799 -0.930186 -1.01121 -1.01799 -1.09475 -1.01121 -1.09052 -1.09475 -1.15725 -1.09052 -1.15662 -1.15725 -1.20124 -1.15662 -1.20174 -1.20124 -1.24622 -1.20174 -1.24793 -1.24622 -1.31098 -1.24793 -1.31623 -1.31098 -1.3907 -1.31623 -1.39809 -1.3907 -1.47563 -1.39809 -1.4822 -1.47563 -1.56096 -1.4822 -1.56466 -1.56096 -1.6458 -1.56466 -1.6458 1.6458 1.56466 1.6458 1.56902 1.56466 1.4822 1.56902 1.49024 1.4822 1.39809 1.49024 1.4077 1.39809 1.31623 1.4077 1.32359 1.31623 1.24793 1.32359 1.25052 1.24793 1.20174 1.25052 1.20232 1.20174 1.15662 1.20232 1.15531 1.15662 1.09052 1.15531 1.08443 1.09052 1.01121 1.08443 1.00249 1.01121 0.930186 1.00249 0.92218 0.930186 0.851998 0.92218 0.84626 0.851998 0.777212 0.84626 0.773852 0.777212 0.705558 0.773852 0.704123 0.705558 0.636742 0.704123 0.636657 0.636742 0.570397 0.636657 0.57112 0.570397 0.505997 0.57112 0.507088 0.505997 0.442888 0.507088 0.444027 0.442888 0.380399 0.444027 0.381388 0.380399 0.317971 0.381388 0.318718 0.317971 0.255235 0.318718 0.255728 0.255235 0.192022 0.255728 0.192304 0.192022 0.128328 0.192304 0.128465 0.128328 0.0642637 0.128465 0.0643146 0.0642637 0 0.0643146 0 0 -0.0642637 0 -0.0643146 -0.0642637 -0.128328 -0.0643146 -0.128465 -0.128328 -0.192022 -0.128465 -0.192304 -0.192022 -0.255235 -0.192304 -0.255728 -0.255235 -0.317971 -0.255728 -0.318718 -0.317971 -0.380399 -0.318718 -0.381388 -0.380399 -0.442888 -0.381388 -0.444027 -0.442888 -0.505997 -0.444027 -0.507088 -0.505997 -0.570397 -0.507088 -0.57112 -0.570397 -0.636742 -0.57112 -0.636657 -0.636742 -0.705558 -0.636657 -0.704123 -0.705558 -0.777212 -0.704123 -0.773852 -0.777212 -0.851998 -0.773852 -0.84626 -0.851998 -0.930186 -0.84626 -0.92218 -0.930186 -1.01121 -0.92218 -1.00249 -1.01121 -1.09052 -1.00249 -1.08443 -1.09052 -1.15662 -1.08443 -1.15531 -1.15662 -1.20174 -1.15531 -1.20232 -1.20174 -1.24793 -1.20232 -1.25052 -1.24793 -1.31623 -1.25052 -1.32359 -1.31623 -1.39809 -1.32359 -1.4077 -1.39809 -1.4822 -1.4077 -1.49024 -1.4822 -1.56466 -1.49024 -1.56902 -1.56466 -1.6458 -1.56902 -1.6458 1.6458 1.56902 1.6458 1.57396 1.56902 1.49024 1.57396 1.49973 1.49024 1.4077 1.49973 1.41993 1.4077 1.32359 1.41993 1.33392 1.32359 1.25052 1.33392 1.25453 1.25052 1.20232 1.25453 1.20295 1.20232 1.15531 1.20295 1.15279 1.15531 1.08443 1.15279 1.07568 1.08443 1.00249 1.07568 0.991487 1.00249 0.92218 0.991487 0.913058 0.92218 0.84626 0.913058 0.84024 0.84626 0.773852 0.84024 0.77063 0.773852 0.704123 0.77063 0.703017 0.704123 0.636657 0.703017 0.636955 0.636657 0.57112 0.636955 0.572201 0.57112 0.507088 0.572201 0.508464 0.507088 0.444027 0.508464 0.445361 0.444027 0.381388 0.445361 0.382484 0.381388 0.318718 0.382484 0.319498 0.318718 0.255728 0.319498 0.256206 0.255728 0.192304 0.256206 0.192549 0.192304 0.128465 0.192549 0.128563 0.128465 0.0643146 0.128563 0.0643424 0.0643146 0 0.0643424 0 0 -0.0643146 0 -0.0643424 -0.0643146 -0.128465 -0.0643424 -0.128563 -0.128465 -0.192304 -0.128563 -0.192549 -0.192304 -0.255728 -0.192549 -0.256206 -0.255728 -0.318718 -0.256206 -0.319498 -0.318718 -0.381388 -0.319498 -0.382484 -0.381388 -0.444027 -0.382484 -0.445361 -0.444027 -0.507088 -0.445361 -0.508464 -0.507088 -0.57112 -0.508464 -0.572201 -0.57112 -0.636657 -0.572201 -0.636955 -0.636657 -0.704123 -0.636955 -0.703017 -0.704123 -0.773852 -0.703017 -0.77063 -0.773852 -0.84626 -0.77063 -0.84024 -0.84626 -0.92218 -0.84024 -0.913058 -0.92218 -1.00249 -0.913058 -0.991487 -1.00249 -1.08443 -0.991487 -1.07568 -1.08443 -1.15531 -1.07568 -1.15279 -1.15531 -1.20232 -1.15279 -1.20295 -1.20232 -1.25052 -1.20295 -1.25453 -1.25052 -1.32359 -1.25453 -1.33392 -1.32359 -1.4077 -1.33392 -1.41993 -1.4077 -1.49024 -1.41993 -1.49973 -1.49024 -1.56902 -1.49973 -1.57396 -1.56902 -1.6458 -1.57396 -1.6458 1.6458 1.57396 1.6458 1.57935 1.57396 1.49973 1.57935 1.51052 1.49973 1.41993 1.51052 1.43507 1.41993 1.33392 1.43507 1.34832 1.33392 1.25453 1.34832 1.26086 1.25453 1.20295 1.26086 1.20363 1.20295 1.15279 1.20363 1.14819 1.15279 1.07568 1.14819 1.06318 1.07568 0.991487 1.06318 0.977928 0.991487 0.913058 0.977928 0.903053 0.913058 0.84024 0.903053 0.834209 0.84024 0.77063 0.834209 0.767767 0.77063 0.703017 0.767767 0.702415 0.703017 0.636955 0.702415 0.63777 0.636955 0.572201 0.63777 0.573725 0.572201 0.508464 0.573725 0.510171 0.508464 0.445361 0.510171 0.446901 0.445361 0.382484 0.446901 0.383672 0.382484 0.319498 0.383672 0.320284 0.319498 0.256206 0.320284 0.256638 0.256206 0.192549 0.256638 0.192728 0.192549 0.128563 0.192728 0.128603 0.128563 0.0643424 0.128603 0.0643364 0.0643424 0 0.0643364 0 0 -0.0643424 0 -0.0643364 -0.0643424 -0.128563 -0.0643364 -0.128603 -0.128563 -0.192549 -0.128603 -0.192728 -0.192549 -0.256206 -0.192728 -0.256638 -0.256206 -0.319498 -0.256638 -0.320284 -0.319498 -0.382484 -0.320284 -0.383672 -0.382484 -0.445361 -0.383672 -0.446901 -0.445361 -0.508464 -0.446901 -0.510171 -0.508464 -0.572201 -0.510171 -0.573725 -0.572201 -0.636955 -0.573725 -0.63777 -0.636955 -0.703017 -0.63777 -0.702415 -0.703017 -0.77063 -0.702415 -0.767767 -0.77063 -0.84024 -0.767767 -0.834209 -0.84024 -0.913058 -0.834209 -0.903053 -0.913058 -0.991487 -0.903053 -0.977928 -0.991487 -1.07568 -0.977928 -1.06318 -1.07568 -1.15279 -1.06318 -1.14819 -1.15279 -1.20295 -1.14819 -1.20363 -1.20295 -1.25453 -1.20363 -1.26086 -1.25453 -1.33392 -1.26086 -1.34832 -1.33392 -1.41993 -1.34832 -1.43507 -1.41993 -1.49973 -1.43507 -1.51052 -1.49973 -1.57396 -1.51052 -1.57935 -1.57396 -1.6458 -1.57935 -1.6458 1.6458 1.57935 1.6458 1.58502 1.57935 1.51052 1.58502 1.52222 1.51052 1.43507 1.52222 1.45311 1.43507 1.34832 1.45311 1.36823 1.34832 1.26086 1.36823 1.27106 1.26086 1.20363 1.27106 1.20435 1.20363 1.14819 1.20435 1.13998 1.14819 1.06318 1.13998 1.04549 1.06318 0.977928 1.04549 0.961827 0.977928 0.903053 0.961827 0.892591 0.903053 0.834209 0.892591 0.828473 0.834209 0.767767 0.828473 0.765496 0.767767 0.702415 0.765496 0.702503 0.702415 0.63777 0.702503 0.639234 0.63777 0.573725 0.639234 0.575781 0.573725 0.510171 0.575781 0.51225 0.510171 0.446901 0.51225 0.448652 0.446901 0.383672 0.448652 0.384932 0.383672 0.320284 0.384932 0.321044 0.320284 0.256638 0.321044 0.256989 0.256638 0.192728 0.256989 0.192811 0.192728 0.128603 0.192811 0.128562 0.128603 0.0643364 0.128562 0.0642851 0.0643364 0 0.0642851 0 0 -0.0643364 0 -0.0642851 -0.0643364 -0.128603 -0.0642851 -0.128562 -0.128603 -0.192728 -0.128562 -0.192811 -0.192728 -0.256638 -0.192811 -0.256989 -0.256638 -0.320284 -0.256989 -0.321044 -0.320284 -0.383672 -0.321044 -0.384932 -0.383672 -0.446901 -0.384932 -0.448652 -0.446901 -0.510171 -0.448652 -0.51225 -0.510171 -0.573725 -0.51225 -0.575781 -0.573725 -0.63777 -0.575781 -0.639234 -0.63777 -0.702415 -0.639234 -0.702503 -0.702415 -0.767767 -0.702503 -0.765496 -0.767767 -0.834209 -0.765496 -0.828473 -0.834209 -0.903053 -0.828473 -0.892591 -0.903053 -0.977928 -0.892591 -0.961827 -0.977928 -1.06318 -0.961827 -1.04549 -1.06318 -1.14819 -1.04549 -1.13998 -1.14819 -1.20363 -1.13998 -1.20435 -1.20363 -1.26086 -1.20435 -1.27106 -1.26086 -1.34832 -1.27106 -1.36823 -1.34832 -1.43507 -1.36823 -1.45311 -1.43507 -1.51052 -1.45311 -1.52222 -1.51052 -1.57935 -1.52222 -1.58502 -1.57935 -1.6458 -1.58502 -1.6458 1.6458 1.58502 1.6458 1.59082 1.58502 1.52222 1.59082 1.53432 1.52222 1.45311 1.53432 1.47333 1.45311 1.36823 1.47333 1.39524 1.36823 1.27106 1.39524 1.28786 1.27106 1.20435 1.28786 1.20509 1.20435 1.13998 1.20509 1.12542 1.13998 1.04549 1.12542 1.02094 1.04549 0.961827 1.02094 0.943862 0.961827 0.892591 0.943862 0.882253 0.892591 0.828473 0.882253 0.823328 0.828473 0.765496 0.823328 0.764057 0.765496 0.702503 0.764057 0.703468 0.702503 0.639234 0.703468 0.641487 0.639234 0.575781 0.641487 0.578456 0.575781 0.51225 0.578456 0.514743 0.51225 0.448652 0.514743 0.450615 0.448652 0.384932 0.450615 0.386238 0.384932 0.321044 0.386238 0.321737 0.321044 0.256989 0.321737 0.257216 0.256989 0.192811 0.257216 0.192762 0.192811 0.128562 0.192762 0.128416 0.128562 0.0642851 0.128416 0.0641764 0.0642851 0 0.0641764 0 0 -0.0642851 0 -0.0641764 -0.0642851 -0.128562 -0.0641764 -0.128416 -0.128562 -0.192811 -0.128416 -0.192762 -0.192811 -0.256989 -0.192762 -0.257216 -0.256989 -0.321044 -0.257216 -0.321737 -0.321044 -0.384932 -0.321737 -0.386238 -0.384932 -0.448652 -0.386238 -0.450615 -0.448652 -0.51225 -0.450615 -0.514743 -0.51225 -0.575781 -0.514743 -0.578456 -0.575781 -0.639234 -0.578456 -0.641487 -0.639234 -0.702503 -0.641487 -0.703468 -0.702503 -0.765496 -0.703468 -0.764057 -0.765496 -0.828473 -0.764057 -0.823328 -0.828473 -0.892591 -0.823328 -0.882253 -0.892591 -0.961827 -0.882253 -0.943862 -0.961827 -1.04549 -0.943862 -1.02094 -1.04549 -1.13998 -1.02094 -1.12542 -1.13998 -1.20435 -1.12542 -1.20509 -1.20435 -1.27106 -1.20509 -1.28786 -1.27106 -1.36823 -1.28786 -1.39524 -1.36823 -1.45311 -1.39524 -1.47333 -1.45311 -1.52222 -1.47333 -1.53432 -1.52222 -1.58502 -1.53432 -1.59082 -1.58502 -1.6458 -1.59082 -1.6458 1.6458 1.59082 1.6458 1.59659 1.59082 1.53432 1.59659 1.5464 1.53432 1.47333 1.5464 1.49397 1.47333 1.39524 1.49397 1.43007 1.39524 1.28786 1.43007 1.31676 1.28786 1.20509 1.31676 1.20584 1.20509 1.12542 1.20584 1.09899 1.12542 1.02094 1.09899 0.988671 1.02094 0.943862 0.988671 0.925775 0.943862 0.882253 0.925775 0.872511 0.882253 0.823328 0.872511 0.819064 0.823328 0.764057 0.819064 0.763708 0.764057 0.703468 0.763708 0.705498 0.703468 0.641487 0.705498 0.644668 0.641487 0.578456 0.644668 0.581838 0.578456 0.514743 0.581838 0.517686 0.514743 0.450615 0.517686 0.452781 0.450615 0.386238 0.452781 0.387553 0.386238 0.321737 0.387553 0.322314 0.321737 0.257216 0.322314 0.257274 0.257216 0.192762 0.257274 0.192544 0.192762 0.128416 0.192544 0.12814 0.128416 0.0641764 0.12814 0.0639978 0.0641764 0 0.0639978 0 0 -0.0641764 0 -0.0639978 -0.0641764 -0.128416 -0.0639978 -0.12814 -0.128416 -0.192762 -0.12814 -0.192544 -0.192762 -0.257216 -0.192544 -0.257274 -0.257216 -0.321737 -0.257274 -0.322314 -0.321737 -0.386238 -0.322314 -0.387553 -0.386238 -0.450615 -0.387553 -0.452781 -0.450615 -0.514743 -0.452781 -0.517686 -0.514743 -0.578456 -0.517