# vtk DataFile Version 3.0
#This file was generated by the deal.II library on 2017/9/27 at 13:12:59
ASCII
DATASET UNSTRUCTURED_GRID

POINTS 2688 double
-3.57641 -1.48246e-23 0
-3.43563 0 0
-3.57641 0.084772 0
-3.4356 0.0840115 0
-3.43563 0 0
-3.29296 0 0
-3.4356 0.0840115 0
-3.2929 0.0818748 0
-3.29296 0 0
-3.1467 0 0
-3.2929 0.0818748 0
-3.14665 0.0788095 0
-3.1467 0 0
-2.99584 0 0
-3.14665 0.0788095 0
-2.9958 0.0755631 0
-2.99584 0 0
-2.84049 0 0
-2.9958 0.0755631 0
-2.84047 0.0730633 0
-2.84049 0 0
-2.68231 0 0
-2.84047 0.0730633 0
-2.68231 0.0721206 0
-2.68231 0 0
-2.52413 0 0
-2.68231 0.0721206 0
-2.52414 0.0730633 0
-2.52413 0 0
-2.36878 0 0
-2.52414 0.0730633 0
-2.36881 0.0755631 0
-2.36878 0 0
-2.21791 0 0
-2.36881 0.0755631 0
-2.21796 0.0788095 0
-2.21791 0 0
-2.07166 0 0
-2.21796 0.0788095 0
-2.07171 0.0818748 0
-2.07166 0 0
-1.92898 0 0
-2.07171 0.0818748 0
-1.92901 0.0840115 0
-1.92898 0 0
-1.78821 0 0
-1.92901 0.0840115 0
-1.78821 0.084772 0
-1.78821 0 0
-1.64743 0 0
-1.78821 0.084772 0
-1.6474 0.0840115 0
-1.64743 0 0
-1.50475 0 0
-1.6474 0.0840115 0
-1.5047 0.0818748 0
-1.50475 0 0
-1.3585 0 0
-1.5047 0.0818748 0
-1.35845 0.0788095 0
-1.3585 0 0
-1.20763 0 0
-1.35845 0.0788095 0
-1.2076 0.0755631 0
-1.20763 0 0
-1.05228 0 0
-1.2076 0.0755631 0
-1.05227 0.0730633 0
-1.05228 0 0
-0.894103 0 0
-1.05227 0.0730633 0
-0.894103 0.0721206 0
-0.894103 0 0
-0.735922 0 0
-0.894103 0.0721206 0
-0.735939 0.0730633 0
-0.735922 0 0
-0.580571 0 0
-0.735939 0.0730633 0
-0.580606 0.0755631 0
-0.580571 0 0
-0.429706 0 0
-0.580606 0.0755631 0
-0.429756 0.0788095 0
-0.429706 0 0
-0.283455 0 0
-0.429756 0.0788095 0
-0.283506 0.0818748 0
-0.283455 0 0
-0.140776 0 0
-0.283506 0.0818748 0
-0.140808 0.0840115 0
-0.140776 0 0
0 0 0
-0.140808 0.0840115 0
0 0.084772 0
0 0 0
0.140776 0 0
0 0.084772 0
0.140808 0.0840115 0
0.140776 0 0
0.283455 -1.29108e-23 0
0.140808 0.0840115 0
0.283506 0.0818748 0
0.283455 -1.29108e-23 0
0.429706 9.76774e-24 0
0.283506 0.0818748 0
0.429756 0.0788095 0
0.429706 9.76774e-24 0
0.580571 -4.79185e-24 0
0.429756 0.0788095 0
0.580606 0.0755631 0
0.580571 -4.79185e-24 0
0.735922 -6.82927e-24 0
0.580606 0.0755631 0
0.735939 0.0730633 0
0.735922 -6.82927e-24 0
0.894103 -7.47002e-24 0
0.735939 0.0730633 0
0.894103 0.0721206 0
0.894103 -7.47002e-24 0
1.05228 5.00451e-25 0
0.894103 0.0721206 0
1.05227 0.0730633 0
1.05228 5.00451e-25 0
1.20763 -1.04486e-23 0
1.05227 0.0730633 0
1.2076 0.0755631 0
1.20763 -1.04486e-23 0
1.3585 -7.51523e-24 0
1.2076 0.0755631 0
1.35845 0.0788095 0
1.3585 -7.51523e-24 0
1.50475 8.6631e-24 0
1.35845 0.0788095 0
1.5047 0.0818748 0
1.50475 8.6631e-24 0
1.64743 -3.51579e-24 0
1.5047 0.0818748 0
1.6474 0.0840115 0
1.64743 -3.51579e-24 0
1.78821 -4.4314e-24 0
1.6474 0.0840115 0
1.78821 0.084772 0
1.78821 -4.4314e-24 0
1.92898 2.51322e-24 0
1.78821 0.084772 0
1.92901 0.0840115 0
1.92898 2.51322e-24 0
2.07166 1.4947e-23 0
1.92901 0.0840115 0
2.07171 0.0818748 0
2.07166 1.4947e-23 0
2.21791 -1.52823e-23 0
2.07171 0.0818748 0
2.21796 0.0788095 0
2.21791 -1.52823e-23 0
2.36878 -8.98325e-24 0
2.21796 0.0788095 0
2.36881 0.0755631 0
2.36878 -8.98325e-24 0
2.52413 -8.81163e-24 0
2.36881 0.0755631 0
2.52414 0.0730633 0
2.52413 -8.81163e-24 0
2.68231 3.25443e-24 0
2.52414 0.0730633 0
2.68231 0.0721206 0
2.68231 3.25443e-24 0
2.84049 4.91831e-24 0
2.68231 0.0721206 0
2.84047 0.0730633 0
2.84049 4.91831e-24 0
2.99584 6.32532e-24 0
2.84047 0.0730633 0
2.9958 0.0755631 0
2.99584 6.32532e-24 0
3.1467 -9.2368e-24 0
2.9958 0.0755631 0
3.14665 0.0788095 0
3.1467 -9.2368e-24 0
3.29296 -1.27287e-23 0
3.14665 0.0788095 0
3.2929 0.0818748 0
3.29296 -1.27287e-23 0
3.43563 3.77865e-24 0
3.2929 0.0818748 0
3.4356 0.0840115 0
3.43563 3.77865e-24 0
3.57641 -1.48246e-23 0
3.4356 0.0840115 0
3.57641 0.084772 0
-3.57641 0.084772 0
-3.4356 0.0840115 0
-3.57641 0.16894 0
-3.43549 0.167498 0
-3.4356 0.0840115 0
-3.2929 0.0818748 0
-3.43549 0.167498 0
-3.29273 0.163439 0
-3.2929 0.0818748 0
-3.14665 0.0788095 0
-3.29273 0.163439 0
-3.14648 0.157601 0
-3.14665 0.0788095 0
-2.9958 0.0755631 0
-3.14648 0.157601 0
-2.99568 0.151395 0
-2.9958 0.0755631 0
-2.84047 0.0730633 0
-2.99568 0.151395 0
-2.84041 0.146601 0
-2.84047 0.0730633 0
-2.68231 0.0721206 0
-2.84041 0.146601 0
-2.68231 0.144789 0
-2.68231 0.0721206 0
-2.52414 0.0730633 0
-2.68231 0.144789 0
-2.5242 0.146601 0
-2.52414 0.0730633 0
-2.36881 0.0755631 0
-2.5242 0.146601 0
-2.36894 0.151395 0
-2.36881 0.0755631 0
-2.21796 0.0788095 0
-2.36894 0.151395 0
-2.21814 0.157601 0
-2.21796 0.0788095 0
-2.07171 0.0818748 0
-2.21814 0.157601 0
-2.07189 0.163439 0
-2.07171 0.0818748 0
-1.92901 0.0840115 0
-2.07189 0.163439 0
-1.92913 0.167498 0
-1.92901 0.0840115 0
-1.78821 0.084772 0
-1.92913 0.167498 0
-1.78821 0.16894 0
-1.78821 0.084772 0
-1.6474 0.0840115 0
-1.78821 0.16894 0
-1.64728 0.167498 0
-1.6474 0.0840115 0
-1.5047 0.0818748 0
-1.64728 0.167498 0
-1.50452 0.163439 0
-1.5047 0.0818748 0
-1.35845 0.0788095 0
-1.50452 0.163439 0
-1.35827 0.157601 0
-1.35845 0.0788095 0
-1.2076 0.0755631 0
-1.35827 0.157601 0
-1.20747 0.151395 0
-1.2076 0.0755631 0
-1.05227 0.0730633 0
-1.20747 0.151395 0
-1.05221 0.146601 0
-1.05227 0.0730633 0
-0.894103 0.0721206 0
-1.05221 0.146601 0
-0.894103 0.144789 0
-0.894103 0.0721206 0
-0.735939 0.0730633 0
-0.894103 0.144789 0
-0.735998 0.146601 0
-0.735939 0.0730633 0
-0.580606 0.0755631 0
-0.735998 0.146601 0
-0.58073 0.151395 0
-0.580606 0.0755631 0
-0.429756 0.0788095 0
-0.58073 0.151395 0
-0.429932 0.157601 0
-0.429756 0.0788095 0
-0.283506 0.0818748 0
-0.429932 0.157601 0
-0.283684 0.163439 0
-0.283506 0.0818748 0
-0.140808 0.0840115 0
-0.283684 0.163439 0
-0.14092 0.167498 0
-0.140808 0.0840115 0
0 0.084772 0
-0.14092 0.167498 0
0 0.16894 0
0 0.084772 0
0.140808 0.0840115 0
0 0.16894 0
0.14092 0.167498 0
0.140808 0.0840115 0
0.283506 0.0818748 0
0.14092 0.167498 0
0.283684 0.163439 0
0.283506 0.0818748 0
0.429756 0.0788095 0
0.283684 0.163439 0
0.429932 0.157601 0
0.429756 0.0788095 0
0.580606 0.0755631 0
0.429932 0.157601 0
0.58073 0.151395 0
0.580606 0.0755631 0
0.735939 0.0730633 0
0.58073 0.151395 0
0.735998 0.146601 0
0.735939 0.0730633 0
0.894103 0.0721206 0
0.735998 0.146601 0
0.894103 0.144789 0
0.894103 0.0721206 0
1.05227 0.0730633 0
0.894103 0.144789 0
1.05221 0.146601 0
1.05227 0.0730633 0
1.2076 0.0755631 0
1.05221 0.146601 0
1.20747 0.151395 0
1.2076 0.0755631 0
1.35845 0.0788095 0
1.20747 0.151395 0
1.35827 0.157601 0
1.35845 0.0788095 0
1.5047 0.0818748 0
1.35827 0.157601 0
1.50452 0.163439 0
1.5047 0.0818748 0
1.6474 0.0840115 0
1.50452 0.163439 0
1.64728 0.167498 0
1.6474 0.0840115 0
1.78821 0.084772 0
1.64728 0.167498 0
1.78821 0.16894 0
1.78821 0.084772 0
1.92901 0.0840115 0
1.78821 0.16894 0
1.92913 0.167498 0
1.92901 0.0840115 0
2.07171 0.0818748 0
1.92913 0.167498 0
2.07189 0.163439 0
2.07171 0.0818748 0
2.21796 0.0788095 0
2.07189 0.163439 0
2.21814 0.157601 0
2.21796 0.0788095 0
2.36881 0.0755631 0
2.21814 0.157601 0
2.36894 0.151395 0
2.36881 0.0755631 0
2.52414 0.0730633 0
2.36894 0.151395 0
2.5242 0.146601 0
2.52414 0.0730633 0
2.68231 0.0721206 0
2.5242 0.146601 0
2.68231 0.144789 0
2.68231 0.0721206 0
2.84047 0.0730633 0
2.68231 0.144789 0
2.84041 0.146601 0
2.84047 0.0730633 0
2.9958 0.0755631 0
2.84041 0.146601 0
2.99568 0.151395 0
2.9958 0.0755631 0
3.14665 0.0788095 0
2.99568 0.151395 0
3.14648 0.157601 0
3.14665 0.0788095 0
3.2929 0.0818748 0
3.14648 0.157601 0
3.29273 0.163439 0
3.2929 0.0818748 0
3.4356 0.0840115 0
3.29273 0.163439 0
3.43549 0.167498 0
3.4356 0.0840115 0
3.57641 0.084772 0
3.43549 0.167498 0
3.57641 0.16894 0
-3.57641 0.16894 0
-3.43549 0.167498 0
-3.57641 0.252603 0
-3.43529 0.250548 0
-3.43549 0.167498 0
-3.29273 0.163439 0
-3.43529 0.250548 0
-3.29241 0.244754 0
-3.29273 0.163439 0
-3.14648 0.157601 0
-3.29241 0.244754 0
-3.14616 0.236387 0
-3.14648 0.157601 0
-2.99568 0.151395 0
-3.14616 0.236387 0
-2.99546 0.227453 0
-2.99568 0.151395 0
-2.84041 0.146601 0
-2.99546 0.227453 0
-2.84031 0.22052 0
-2.84041 0.146601 0
-2.68231 0.144789 0
-2.84031 0.22052 0
-2.68231 0.217893 0
-2.68231 0.144789 0
-2.5242 0.146601 0
-2.68231 0.217893 0
-2.52431 0.22052 0
-2.5242 0.146601 0
-2.36894 0.151395 0
-2.52431 0.22052 0
-2.36916 0.227453 0
-2.36894 0.151395 0
-2.21814 0.157601 0
-2.36916 0.227453 0
-2.21845 0.236387 0
-2.21814 0.157601 0
-2.07189 0.163439 0
-2.21845 0.236387 0
-2.07221 0.244754 0
-2.07189 0.163439 0
-1.92913 0.167498 0
-2.07221 0.244754 0
-1.92933 0.250548 0
-1.92913 0.167498 0
-1.78821 0.16894 0
-1.92933 0.250548 0
-1.78821 0.252603 0
-1.78821 0.16894 0
-1.64728 0.167498 0
-1.78821 0.252603 0
-1.64708 0.250548 0
-1.64728 0.167498 0
-1.50452 0.163439 0
-1.64708 0.250548 0
-1.5042 0.244754 0
-1.50452 0.163439 0
-1.35827 0.157601 0
-1.5042 0.244754 0
-1.35796 0.236387 0
-1.35827 0.157601 0
-1.20747 0.151395 0
-1.35796 0.236387 0
-1.20725 0.227453 0
-1.20747 0.151395 0
-1.05221 0.146601 0
-1.20725 0.227453 0
-1.0521 0.22052 0
-1.05221 0.146601 0
-0.894103 0.144789 0
-1.0521 0.22052 0
-0.894103 0.217893 0
-0.894103 0.144789 0
-0.735998 0.146601 0
-0.894103 0.217893 0
-0.736102 0.22052 0
-0.735998 0.146601 0
-0.58073 0.151395 0
-0.736102 0.22052 0
-0.580953 0.227453 0
-0.58073 0.151395 0
-0.429932 0.157601 0
-0.580953 0.227453 0
-0.430248 0.236387 0
-0.429932 0.157601 0
-0.283684 0.163439 0
-0.430248 0.236387 0
-0.284003 0.244754 0
-0.283684 0.163439 0
-0.14092 0.167498 0
-0.284003 0.244754 0
-0.141122 0.250548 0
-0.14092 0.167498 0
0 0.16894 0
-0.141122 0.250548 0
0 0.252603 0
0 0.16894 0
0.14092 0.167498 0
0 0.252603 0
0.141122 0.250548 0
0.14092 0.167498 0
0.283684 0.163439 0
0.141122 0.250548 0
0.284003 0.244754 0
0.283684 0.163439 0
0.429932 0.157601 0
0.284003 0.244754 0
0.430248 0.236387 0
0.429932 0.157601 0
0.58073 0.151395 0
0.430248 0.236387 0
0.580953 0.227453 0
0.58073 0.151395 0
0.735998 0.146601 0
0.580953 0.227453 0
0.736102 0.22052 0
0.735998 0.146601 0
0.894103 0.144789 0
0.736102 0.22052 0
0.894103 0.217893 0
0.894103 0.144789 0
1.05221 0.146601 0
[...]
POINT_DATA 2688
SCALARS x1_displacement double 1
LOOKUP_TABLE default
2.05566 1.96177 2.05566 1.9618 1.96177 1.86978 1.9618 1.86983 1.86978 1.78136 1.86983 1.78141 1.78136 1.69755 1.78141 1.69759 1.69755 1.61824 1.69759 1.61825 1.61824 1.54175 1.61825 1.54175 1.54175 1.46526 1.54175 1.46524 1.46526 1.38594 1.46524 1.3859 1.38594 1.30213 1.3859 1.30208 1.30213 1.21372 1.30208 1.21366 1.21372 1.12173 1.21366 1.12169 1.12173 1.02783 1.12169 1.02783 1.02783 0.933937 1.02783 0.933969 0.933937 0.841947 0.933969 0.841997 0.841947 0.753528 0.841997 0.753578 0.753528 0.669723 0.753578 0.669758 0.669723 0.590405 0.669758 0.590421 0.590405 0.513916 0.590421 0.513916 0.513916 0.437426 0.513916 0.43741 0.437426 0.358108 0.43741 0.358073 0.358108 0.274303 0.358073 0.274253 0.274303 0.185884 0.274253 0.185834 0.185884 0.093894 0.185834 0.093862 0.093894 0 0.093862 0 0 -0.093894 0 -0.093862 -0.093894 -0.185884 -0.093862 -0.185834 -0.185884 -0.274303 -0.185834 -0.274253 -0.274303 -0.358108 -0.274253 -0.358073 -0.358108 -0.437426 -0.358073 -0.43741 -0.437426 -0.513916 -0.43741 -0.513916 -0.513916 -0.590405 -0.513916 -0.590421 -0.590405 -0.669723 -0.590421 -0.669758 -0.669723 -0.753528 -0.669758 -0.753578 -0.753528 -0.841947 -0.753578 -0.841997 -0.841947 -0.933937 -0.841997 -0.933969 -0.933937 -1.02783 -0.933969 -1.02783 -1.02783 -1.12173 -1.02783 -1.12169 -1.12173 -1.21372 -1.12169 -1.21366 -1.21372 -1.30213 -1.21366 -1.30208 -1.30213 -1.38594 -1.30208 -1.3859 -1.38594 -1.46526 -1.3859 -1.46524 -1.46526 -1.54175 -1.46524 -1.54175 -1.54175 -1.61824 -1.54175 -1.61825 -1.61824 -1.69755 -1.61825 -1.69759 -1.69755 -1.78136 -1.69759 -1.78141 -1.78136 -1.86978 -1.78141 -1.86983 -1.86978 -1.96177 -1.86983 -1.9618 -1.96177 -2.05566 -1.9618 -2.05566 2.05566 1.9618 2.05566 1.96191 1.9618 1.86983 1.96191 1.87001 1.86983 1.78141 1.87001 1.78159 1.78141 1.69759 1.78159 1.69771 1.69759 1.61825 1.69771 1.61831 1.61825 1.54175 1.61831 1.54175 1.54175 1.46524 1.54175 1.46518 1.46524 1.3859 1.46518 1.38578 1.3859 1.30208 1.38578 1.30191 1.30208 1.21366 1.30191 1.21349 1.21366 1.12169 1.21349 1.12158 1.12169 1.02783 1.12158 1.02783 1.02783 0.933969 1.02783 0.934082 0.933969 0.841997 0.934082 0.842175 0.841997 0.753578 0.842175 0.753754 0.753578 0.669758 0.753754 0.669883 0.669758 0.590421 0.669883 0.590481 0.590421 0.513916 0.590481 0.513916 0.513916 0.43741 0.513916 0.437351 0.43741 0.358073 0.437351 0.357948 0.358073 0.274253 0.357948 0.274077 0.274253 0.185834 0.274077 0.185656 0.185834 0.093862 0.185656 0.0937494 0.093862 0 0.0937494 0 0 -0.093862 0 -0.0937494 -0.093862 -0.185834 -0.0937494 -0.185656 -0.185834 -0.274253 -0.185656 -0.274077 -0.274253 -0.358073 -0.274077 -0.357948 -0.358073 -0.43741 -0.357948 -0.437351 -0.43741 -0.513916 -0.437351 -0.513916 -0.513916 -0.590421 -0.513916 -0.590481 -0.590421 -0.669758 -0.590481 -0.669883 -0.669758 -0.753578 -0.669883 -0.753754 -0.753578 -0.841997 -0.753754 -0.842175 -0.841997 -0.933969 -0.842175 -0.934082 -0.933969 -1.02783 -0.934082 -1.02783 -1.02783 -1.12169 -1.02783 -1.12158 -1.12169 -1.21366 -1.12158 -1.21349 -1.21366 -1.30208 -1.21349 -1.30191 -1.30208 -1.3859 -1.30191 -1.38578 -1.3859 -1.46524 -1.38578 -1.46518 -1.46524 -1.54175 -1.46518 -1.54175 -1.54175 -1.61825 -1.54175 -1.61831 -1.61825 -1.69759 -1.61831 -1.69771 -1.69759 -1.78141 -1.69771 -1.78159 -1.78141 -1.86983 -1.78159 -1.87001 -1.86983 -1.9618 -1.87001 -1.96191 -1.9618 -2.05566 -1.96191 -2.05566 2.05566 1.96191 2.05566 1.96211 1.96191 1.87001 1.96211 1.87033 1.87001 1.78159 1.87033 1.7819 1.78159 1.69771 1.7819 1.69794 1.69771 1.61831 1.69794 1.61842 1.61831 1.54175 1.61842 1.54175 1.54175 1.46518 1.54175 1.46508 1.46518 1.38578 1.46508 1.38556 1.38578 1.30191 1.38556 1.30159 1.30191 1.21349 1.30159 1.21317 1.21349 1.12158 1.21317 1.12138 1.12158 1.02783 1.12138 1.02783 1.02783 0.934082 1.02783 0.934283 0.934082 0.842175 0.934283 0.842494 0.842175 0.753754 0.842494 0.75407 0.753754 0.669883 0.75407 0.670105 0.669883 0.590481 0.670105 0.590585 0.590481 0.513916 0.590585 0.513916 0.513916 0.437351 0.513916 0.437246 0.437351 0.357948 0.437246 0.357726 0.357948 0.274077 0.357726 0.273761 0.274077 0.185656 0.273761 0.185337 0.185656 0.0937494 0.185337 0.0935477 0.0937494 0 0.0935477 0 0 -0.0937494 0 -0.0935477 -0.0937494 -0.185656 -0.0935477 -0.185337 -0.185656 -0.274077 -0.185337 -0.273761 -0.274077 -0.357948 -0.273761 -0.357726 -0.357948 -0.437351 -0.357726 -0.437246 -0.437351 -0.513916 -0.437246 -0.513916 -0.513916 -0.590481 -0.513916 -0.590585 -0.590481 -0.669883 -0.590585 -0.670105 -0.669883 -0.753754 -0.670105 -0.75407 -0.753754 -0.842175 -0.75407 -0.842494 -0.842175 -0.934082 -0.842494 -0.934283 -0.934082 -1.02783 -0.934283 -1.02783 -1.02783 -1.12158 -1.02783 -1.12138 -1.12158 -1.21349 -1.12138 -1.21317 -1.21349 -1.30191 -1.21317 -1.30159 -1.30191 -1.38578 -1.30159 -1.38556 -1.38578 -1.46518 -1.38556 -1.46508 -1.46518 -1.54175 -1.46508 -1.54175 -1.54175 -1.61831 -1.54175 -1.61842 -1.61831 -1.69771 -1.61842 -1.69794 -1.69771 -1.78159 -1.69794 -1.7819 -1.78159 -1.87001 -1.7819 -1.87033 -1.87001 -1.96191 -1.87033 -1.96211 -1.96191 -2.05566 -1.96211 -2.05566 2.05566 1.96211 2.05566 1.96243 1.96211 1.87033 1.96243 1.87083 1.87033 1.7819 1.87083 1.7824 1.7819 1.69794 1.7824 1.69829 1.69794 1.61842 1.69829 1.61858 1.61842 1.54175 1.61858 1.54175 1.54175 1.46508 1.54175 1.46491 1.46508 1.38556 1.46491 1.3852 1.38556 1.30159 1.3852 1.30109 1.30159 1.21317 1.30109 1.21267 1.21317 1.12138 1.21267 1.12106 1.12138 1.02783 1.12106 1.02783 1.02783 0.934283 1.02783 0.934598 0.934283 0.842494 0.934598 0.842994 0.842494 0.75407 0.842994 0.754569 0.75407 0.670105 0.754569 0.67046 0.670105 0.590585 0.67046 0.590753 0.590585 0.513916 0.590753 0.513916 0.513916 0.437246 0.513916 0.437078 0.437246 0.357726 0.437078 0.357371 0.357726 0.273761 0.357371 0.273262 0.273761 0.185337 0.273262 0.184837 0.185337 0.0935477 0.184837 0.0932334 0.0935477 0 0.0932334 0 0 -0.0935477 0 -0.0932334 -0.0935477 -0.185337 -0.0932334 -0.184837 -0.185337 -0.273761 -0.184837 -0.273262 -0.273761 -0.357726 -0.273262 -0.357371 -0.357726 -0.437246 -0.357371 -0.437078 -0.437246 -0.513916 -0.437078 -0.513916 -0.513916 -0.590585 -0.513916 -0.590753 -0.590585 -0.670105 -0.590753 -0.67046 -0.670105 -0.75407 -0.67046 -0.754569 -0.75407 -0.842494 -0.754569 -0.842994 -0.842494 -0.934283 -0.842994 -0.934598 -0.934283 -1.02783 -0.934598 -1.02783 -1.02783 -1.12138 -1.02783 -1.12106 -1.12138 -1.21317 -1.12106 -1.21267 -1.21317 -1.30159 -1.21267 -1.30109 -1.30159 -1.38556 -1.30109 -1.3852 -1.38556 -1.46508 -1.3852 -1.46491 -1.46508 -1.54175 -1.46491 -1.54175 -1.54175 -1.61842 -1.54175 -1.61858 -1.61842 -1.69794 -1.61858 -1.69829 -1.69794 -1.7819 -1.69829 -1.7824 -1.7819 -1.87033 -1.7824 -1.87083 -1.87033 -1.96211 -1.87083 -1.96243 -1.96211 -2.05566 -1.96243 -2.05566 2.05566 1.96243 2.05566 1.96289 1.96243 1.87083 1.96289 1.87157 1.87083 1.7824 1.87157 1.78316 1.7824 1.69829 1.78316 1.69884 1.69829 1.61858 1.69884 1.61885 1.61858 1.54175 1.61885 1.54175 1.54175 1.46491 1.54175 1.46464 1.46491 1.3852 1.46464 1.38465 1.3852 1.30109 1.38465 1.30034 1.30109 1.21267 1.30034 1.21192 1.21267 1.12106 1.21192 1.1206 1.12106 1.02783 1.1206 1.02783 1.02783 0.934598 1.02783 0.935062 0.934598 0.842994 0.935062 0.843739 0.842994 0.754569 0.843739 0.755324 0.754569 0.67046 0.755324 0.671009 0.67046 0.590753 0.671009 0.591019 0.590753 0.513916 0.591019 0.513916 0.513916 0.437078 0.513916 0.436812 0.437078 0.357371 0.436812 0.356822 0.357371 0.273262 0.356822 0.272507 0.273262 0.184837 0.272507 0.184092 0.184837 0.0932334 0.184092 0.0927697 0.0932334 0 0.0927697 0 0 -0.0932334 0 -0.0927697 -0.0932334 -0.184837 -0.0927697 -0.184092 -0.184837 -0.273262 -0.184092 -0.272507 -0.273262 -0.357371 -0.272507 -0.356822 -0.357371 -0.437078 -0.356822 -0.436812 -0.437078 -0.513916 -0.436812 -0.513916 -0.513916 -0.590753 -0.513916 -0.591019 -0.590753 -0.67046 -0.591019 -0.671009 -0.67046 -0.754569 -0.671009 -0.755324 -0.754569 -0.842994 -0.755324 -0.843739 -0.842994 -0.934598 -0.843739 -0.935062 -0.934598 -1.02783 -0.935062 -1.02783 -1.02783 -1.12106 -1.02783 -1.1206 -1.12106 -1.21267 -1.1206 -1.21192 -1.21267 -1.30109 -1.21192 -1.30034 -1.30109 -1.3852 -1.30034 -1.38465 -1.3852 -1.46491 -1.38465 -1.46464 -1.46491 -1.54175 -1.46464 -1.54175 -1.54175 -1.61858 -1.54175 -1.61885 -1.61858 -1.69829 -1.61885 -1.69884 -1.69829 -1.7824 -1.69884 -1.78316 -1.7824 -1.87083 -1.78316 -1.87157 -1.87083 -1.96243 -1.87157 -1.96289 -1.96243 -2.05566 -1.96289 -2.05566 2.05566 1.96289 2.05566 1.96355 1.96289 1.87157 1.96355 1.87265 1.87157 1.78316 1.87265 1.78427 1.78316 1.69884 1.78427 1.69967 1.69884 1.61885 1.69967 1.61926 1.61885 1.54175 1.61926 1.54175 1.54175 1.46464 1.54175 1.46423 1.46464 1.38465 1.46423 1.38382 1.38465 1.30034 1.38382 1.29922 1.30034 1.21192 1.29922 1.21085 1.21192 1.1206 1.21085 1.11994 1.1206 1.02783 1.11994 1.02783 1.02783 0.935062 1.02783 0.935723 0.935062 0.843739 0.935723 0.844815 0.843739 0.755324 0.844815 0.756438 0.755324 0.671009 0.756438 0.671839 0.671009 0.591019 0.671839 0.591432 0.591019 0.513916 0.591432 0.513916 0.513916 0.436812 0.513916 0.4364 0.436812 0.356822 0.4364 0.355992 0.356822 0.272507 0.355992 0.271393 0.272507 0.184092 0.271393 0.183016 0.184092 0.0927697 0.183016 0.0921077 0.0927697 0 0.0921077 0 0 -0.0927697 0 -0.0921077 -0.0927697 -0.184092 -0.0921077 -0.183016 -0.184092 -0.272507 -0.183016 -0.271393 -0.272507 -0.356822 -0.271393 -0.355992 -0.356822 -0.436812 -0.355992 -0.4364 -0.436812 -0.513916 -0.4364 -0.513916 -0.513916 -0.591019 -0.513916 -0.591432 -0.591019 -0.671009 -0.591432 -0.671839 -0.671009 -0.755324 -0.671839 -0.756438 -0.755324 -0.843739 -0.756438 -0.844815 -0.843739 -0.935062 -0.844815 -0.935723 -0.935062 -1.02783 -0.935723 -1.02783 -1.02783 -1.1206 -1.02783 -1.11994 -1.1206 -1.21192 -1.11994 -1.21085 -1.21192 -1.30034 -1.21085 -1.29922 -1.30034 -1.38465 -1.29922 -1.38382 -1.38465 -1.46464 -1.38382 -1.46423 -1.46464 -1.54175 -1.46423 -1.54175 -1.54175 -1.61885 -1.54175 -1.61926 -1.61885 -1.69884 -1.61926 -1.69967 -1.69884 -1.78316 -1.69967 -1.78427 -1.78316 -1.87157 -1.78427 -1.87265 -1.87157 -1.96289 -1.87265 -1.96355 -1.96289 -2.05566 -1.96355 -2.05566 2.05566 1.96355 2.05566 1.96447 1.96355 1.87265 1.96447 1.87416 1.87265 1.78427 1.87416 1.78587 1.78427 1.69967 1.78587 1.7009 1.69967 1.61926 1.7009 1.61989 1.61926 1.54175 1.61989 1.54175 1.54175 1.46423 1.54175 1.46361 1.46423 1.38382 1.46361 1.3826 1.38382 1.29922 1.3826 1.29762 1.29922 1.21085 1.29762 1.20933 1.21085 1.11994 1.20933 1.11902 1.11994 1.02783 1.11902 1.02783 1.02783 0.935723 1.02783 0.936643 0.935723 0.844815 0.936643 0.846332 0.844815 0.756438 0.846332 0.758041 0.756438 0.671839 0.758041 0.673066 0.671839 0.591432 0.673066 0.592057 0.591432 0.513916 0.592057 0.513916 0.513916 0.4364 0.513916 0.435774 0.4364 0.355992 0.435774 0.354765 0.355992 0.271393 0.354765 0.26979 0.271393 0.183016 0.26979 0.181499 0.183016 0.0921077 0.181499 0.0911882 0.0921077 0 0.0911882 0 0 -0.0921077 0 -0.0911882 -0.0921077 -0.183016 -0.0911882 -0.181499 -0.183016 -0.271393 -0.181499 -0.26979 -0.271393 -0.355992 -0.26979 -0.354765 -0.355992 -0.4364 -0.354765 -0.435774 -0.4364 -0.513916 -0.435774 -0.513916 -0.513916 -0.591432 -0.513916 -0.592057 -0.591432 -0.671839 -0.592057 -0.673066 -0.671839 -0.756438 -0.673066 -0.758041 -0.756438 -0.844815 -0.758041 -0.846332 -0.844815 -0.935723 -0.846332 -0.936643 -0.935723 -1.02783 -0.936643 -1.02783 -1.02783 -1.11994 -1.02783 -1.11902 -1.11994 -1.21085 -1.11902 -1.20933 -1.21085 -1.29922 -1.20933 -1.29762 -1.29922 -1.38382 -1.29762 -1.3826 -1.38382 -1.46423 -1.3826 -1.46361 -1.46423 -1.54175 -1.46361 -1.54175 -1.54175 -1.61926 -1.54175 -1.61989 -1.61926 -1.69967 -1.61989 -1.7009 -1.69967 -1.78427 -1.7009 -1.78587 -1.78427 -1.87265 -1.78587 -1.87416 -1.87265 -1.96355 -1.87416 -1.96447 -1.96355 -2.05566 -1.96447 -2.05566 2.05566 1.96447 2.05566 1.96572 1.96447 1.87416 1.96572 1.87625 1.87416 1.78587 1.87625 1.78813 1.78587 1.7009 1.78813 1.70267 1.7009 1.61989 1.70267 1.62082 1.61989 1.54175 1.62082 1.54175 1.54175 1.46361 1.54175 1.46268 1.46361 1.3826 1.46268 1.38082 1.3826 1.29762 1.38082 1.29536 1.29762 1.20933 1.29536 1.20724 1.20933 1.11902 1.20724 1.11777 1.11902 1.02783 1.11777 1.02783 1.02783 0.936643 1.02783 0.937889 0.936643 0.846332 0.937889 0.848419 0.846332 0.758041 0.848419 0.760301 0.758041 0.673066 0.760301 0.674844 0.673066 0.592057 0.674844 0.592985 0.592057 0.513916 0.592985 0.513916 0.513916 0.435774 0.513916 0.434847 0.435774 0.354765 0.434847 0.352988 0.354765 0.26979 0.352988 0.26753 0.26979 0.181499 0.26753 0.179412 0.181499 0.0911882 0.179412 0.0899426 0.0911882 0 0.0899426 0 0 -0.0911882 0 -0.0899426 -0.0911882 -0.181499 -0.0899426 -0.179412 -0.181499 -0.26979 -0.179412 -0.26753 -0.26979 -0.354765 -0.26753 -0.352988 -0.354765 -0.435774 -0.352988 -0.434847 -0.435774 -0.513916 -0.434847 -0.513916 -0.513916 -0.592057 -0.513916 -0.592985 -0.592057 -0.673066 -0.592985 -0.674844 -0.673066 -0.758041 -0.674844 -0.760301 -0.758041 -0.846332 -0.760301 -0.848419 -0.846332 -0.936643 -0.848419 -0.937889 -0.936643 -1.02783 -0.937889 -1.02783 -1.02783 -1.11902 -1.02783 -1.11777 -1.11902 -1.20933 -1.11777 -1.20724 -1.20933 -1.29762 -1.20724 -1.29536 -1.29762 -1.3826 -1.29536 -1.38082 -1.3826 -1.46361 -1.38082 -1.46268 -1.46361 -1.54175 -1.46268 -1.54175 -1.54175 -1.61989 -1.54175 -1.62082 -1.61989 -1.7009 -1.62082 -1.70267 -1.7009 -1.78587 -1.70267 -1.78813 -1.78587 -1.87416 -1.78813 -1.87625 -1.87416 -1.96447 -1.87625 -1.96572 -1.96447 -2.05566 -1.96572 -2.05566 2.05566 1.96572 2.05566 1.96737 1.96572 1.87625 1.96737 1.87906 1.87625 1.78813 1.87906 1.79125 1.78813 1.70267 1.79125 1.7052 1.70267 1.62082 1.7052 1.62217 1.62082 1.54175 1.62217 1.54175 1.54175 1.46268 1.54175 1.46133 1.46268 1.38082 1.46133 1.37829 1.38082 1.29536 1.37829 1.29224 1.29536 1.20724 1.29224 1.20444 1.20724 1.11777 1.20444 1.11613 1.11777 1.02783 1.11613 1.02783 1.02783 0.937889 1.02783 0.939535 0.937889 0.848419 0.939535 0.851226 0.848419 0.760301 0.851226 0.76342 0.760301 0.674844 0.76342 0.67737 0.674844 0.592985 0.67737 0.594335 0.592985 0.513916 0.594335 0.513916 0.513916 0.434847 0.513916 0.433496 0.434847 0.352988 0.433496 0.350461 0.352988 0.26753 0.350461 0.264411 0.26753 0.179412 0.264411 0.176605 0.179412 0.0899426 0.176605 0.0882965 0.0899426 0 0.0882965 0 0 -0.0899426 0 -0.0882965 -0.0899426 -0.179412 -0.0882965 -0.176605 -0.179412 -0.26753 -0.176605 -0.264411 -0.26753 -0.352988 -0.264411 -0.350461 -0.352988 -0.434847 -0.350461 -0.433496 -0.434847 -0.513916 -0.433496 -0.513916 -0.513916 -0.592985 -0.513916 -0.594335 -0.592985 -0.674844 -0.594335 -0.67737 -0.674844 -0.760301 -0.67737 -0.76342 -0.760301 -0.848419 -0.76342 -0.851226 -0.848419 -0.937889 -0.851226 -0.939535 -0.937889 -1.02783 -0.939535 -1.02783 -1.02783 -1.11777 -1.02783 -1.11613 -1.11777 -1.20724 -1.11613 -1.20444 -1.20724 -1.29536 -1.20444 -1.29224 -1.29536 -1.38082 -1.29224 -1.37829 -1.38082 -1.46268 -1.37829 -1.46133 -1.46268 -1.54175 -1.46133 -1.54175 -1.54175 -1.62082 -1.54175 -1.62217 -1.62082 -1.70267 -1.62217 -1.7052 -1.70267 -1.78813 -1.7052 -1.79125 -1.78813 -1.87625 -1.79125 -1.87906 -1.87625 -1.96572 -1.87906 -1.96737 -1.96572 -2.05566 -1.96737 -2.05566 2.05566 1.96737 2.05566 1.96949 1.96737 1.87906 1.96949 1.88275 1.87906 1.79125 1.88275 1.79548 1.79125 1.7052 1.79548 1.70874 1.7052 1.62217 1.70874 1.62411 1.62217 1.54175 1.62411 1.54175 1.54175 1.46133 1.54175 1.45939 1.46133 1.37829 1.45939 1.37476 1.37829 1.29224 1.37476 1.28802 1.29224 1.20444 1.28802 1.20074 1.20444 1.11613 1.20074 1.11401 1.11613 1.02783 1.11401 1.02783 1.02783 0.939535 1.02783 0.941657 0.939535 0.851226 0.941657 0.854918 0.851226 0.76342 0.854918 0.767646 0.76342 0.67737 0.767646 0.680906 0.67737 0.594335 0.680906 0.596276 0.594335 0.513916 0.596276 0.513916 0.513916 0.433496 0.513916 0.431555 0.433496 0.350461 0.431555 0.346925 0.350461 0.264411 0.346925 0.260185 0.264411 0.176605 0.260185 0.172913 0.176605 0.0882965 0.172913 0.0861744 0.0882965 0 0.0861744 0 0 -0.0882965 0 -0.0861744 -0.0882965 -0.176605 -0.0861744 -0.172913 -0.176605 -0.264411 -0.172913 -0.260185 -0.264411 -0.350461 -0.260185 -0.346925 -0.350461 -0.433496 -0.346925 -0.431555 -0.433496 -0.513916 -0.431555 -0.513916 -0.513916 -0.594335 -0.513916 -0.596276 -0.594335 -0.67737 -0.596276 -0.680906 -0.67737 -0.76342 -0.680906 -0.767646 -0.76342 -0.851226 -0.767646 -0.854918 -0.851226 -0.939535 -0.854918 -0.941657 -0.939535 -1.02783 -0.941657 -1.02783 -1.02783 -1.11613 -1.02783 -1.11401 -1.11613 -1.20444 -1.11401 -1.20074 -1.20444 -1.29224 -1.20074 -1.28802 -1.29224 -1.37829 -1.28802 -1.37476 -1.37829 -1.46133 -1.37476 -1.45939 -1.46133 -1.54175 -1.45939 -1.54175 -1.54175 -1.62217 -1.54175 -1.62411 -1.62217 -1.7052 -1.62411 -1.70874 -1.7052 -1.79125 -1.70874 -1.79548 -1.79125 -1.87906 -1.79548 -1.88275 -1.87906 -1.96737 -1.88275 -1.96949 -1.96737 -2.05566 -1.96949 -2.05566 2.05566 1.96949 2.05566 1.97216 1.96949 1.88275 1.97216 1.8875 1.88275 1.79548 1.8875 1.8011 1.79548 1.70874 1.8011 1.71363 1.70874 1.62411 1.71363 1.62688 1.62411 1.54175 1.62688 1.54175 1.54175 1.45939 1.54175 1.45662 1.45939 1.37476 1.45662 1.36986 1.37476 1.28802 1.36986 1.28239 1.28802 1.20074 1.28239 1.196 1.20074 1.11401 1.196 1.11134 1.11401 1.02783 1.11134 1.02783 1.02783 0.941657 1.02783 0.944325 0.941657 0.854918 0.944325 0.859667 0.854918 0.767646 0.859667 0.773273 0.767646 0.680906 0.773273 0.685799 0.680906 0.596276 0.685799 0.599046 0.596276 0.513916 0.599046 0.513916 0.513916 0.431555 0.513916 0.428785 0.431555 0.346925 0.428785 0.342032 0.346925 0.260185 0.342032 0.254558 0.260185 0.172913 0.254558 0.168164 0.172913 0.0861744 0.168164 0.0835065 0.0861744 0 0.0835065 0 0 -0.0861744 0 -0.0835065 -0.0861744 -0.172913 -0.0835065 -0.168164 -0.172913 -0.260185 -0.168164 -0.254558 -0.260185 -0.346925 -0.254558 -0.342032 -0.346925 -0.431555 -0.342032 -0.428785 -0.431555 -0.513916 -0.428785 -0.513916 -0.513916 -0.596276 -0.513916 -0.599046 -0.596276 -0.680906 -0.599046 -0.685799 -0.680906 -0.767646 -0.685799 -0.773273 -0.767646 -0.854918 -0.773273 -0.859667 -0.854918 -0.941657 -0.859667 -0.944325 -0.941657 -1.02783 -0.944325 -1.02783 -1.02783 -1.11401 -1.02783 -1.11134 -1.11401 -1.20074 -1.11134 -1.196 -1.20074 -1.28802 -1.196 -1.28239 -1.28802 -1.37476 -1.28239 -1.36986 -1.37476 -1.45939 -1.36986 -1.45662 -1.45939 -1.54175 -1.45662 -1.54175 -1.54175 -1.62411 -1.54175 -1.62688 -1.62411 -1.70874 -1.62688 -1.71363 -1.70874 -1.79548 -1.71363 -1.8011 -1.79548 -1.88275 -1.8011 -1.8875 -1.88275 -1.96949 -1.8875 -1.97216 -1.96949 -2.05566 -1.97216 -2.05566 2.05566 1.97216 2.05566 1.97542 1.97216 1.8875 1.97542 1.89346 1.8875 1.8011 1.89346 1.80847 1.8011 1.71363 1.80847 1.72035 1.71363 1.62688 1.72035 1.63083 1.62688 1.54175 1.63083 1.54175 1.54175 1.45662 1.54175 1.45266 1.45662 1.36986 1.45266 1.36314 1.36986 1.28239 1.36314 1.27503 1.28239 1.196 1.27503 1.19003 1.196 1.11134 1.19003 1.10807 1.11134 1.02783 1.10807 1.02783 1.02783 0.944325 1.02783 0.947594 0.944325 0.859667 0.947594 0.865633 0.859667 0.773273 0.865633 0.780637 0.773273 0.685799 0.780637 0.692518 0.685799 0.599046 0.692518 0.603001 0.599046 0.513916 0.603001 0.513916 0.513916 0.428785 0.513916 0.42483 0.428785 0.342032 0.42483 0.335313 0.342032 0.254558 0.335313 0.247194 0.254558 0.168164 0.247194 0.162198 0.168164 0.0835065 0.162198 0.0802374 0.0835065 0 0.0802374 0 0 -0.0835065 0 -0.0802374 -0.0835065 -0.168164 -0.0802374 -0.162198 -0.168164 -0.254558 -0.162198 -0.247194 -0.254558 -0.342032 -0.247194 -0.335313 -0.342032 -0.428785 -0.335313 -0.42483 -0.428785 -0.513916 -0.42483 -0.513916 -0.513916 -0.599046 -0.513916 -0.603001 -0.599046 -0.685799 -0.603001 -0.692518 -0.685799 -0.773273 -0.692518 -0.780637 -0.773273 -0.859667 -0.780637 -0.865633 -0.859667 -0.944325 -0.865633 -0.947594 -0.944325 -1.02783 -0.947594 -1.02783 -1.02783 -1.11134 -1.02783 -1.10807 -1.11134 -1.196 -1.10807 -1.19003 -1.196 -1.28239 -1.19003 -1.27503 -1.28239 -1.36986 