# vtk DataFile Version 3.0
#This file was generated by the deal.II library on 2017/9/27 at 13:19:10
ASCII
DATASET UNSTRUCTURED_GRID

POINTS 2688 double
-4.36636 -1.14489e-22 0
-4.21595 0 0
-4.36636 0.0976867 0
-4.21528 0.0964629 0
-4.21595 0 0
-4.06468 0 0
-4.21528 0.0964629 0
-4.06354 0.0922981 0
-4.06468 0 0
-3.90956 0 0
-4.06354 0.0922981 0
-3.90834 0.0840535 0
-3.90956 0 0
-3.74391 0 0
-3.90834 0.0840535 0
-3.74304 0.0713752 0
-3.74391 0 0
-3.55834 0 0
-3.74304 0.0713752 0
-3.55797 0.0574687 0
-3.55834 0 0
-3.35074 0 0
-3.55797 0.0574687 0
-3.35068 0.0502617 0
-3.35074 0 0
-3.14173 0 0
-3.35068 0.0502617 0
-3.14199 0.0560586 0
-3.14173 0 0
-2.95253 0 0
-3.14199 0.0560586 0
-2.95334 0.0684258 0
-2.95253 0 0
-2.78133 0 0
-2.95334 0.0684258 0
-2.7826 0.0792781 0
-2.78133 0 0
-2.61796 0 0
-2.7826 0.0792781 0
-2.61931 0.0853666 0
-2.61796 0 0
-2.45432 0 0
-2.61931 0.0853666 0
-2.45546 0.0872048 0
-2.45432 0 0
-2.28601 0 0
-2.45546 0.0872048 0
-2.2868 0.0863915 0
-2.28601 0 0
-2.11141 0 0
-2.2868 0.0863915 0
-2.11186 0.0843044 0
-2.11141 0 0
-1.93058 0 0
-2.11186 0.0843044 0
-1.93078 0.0818494 0
-1.93058 0 0
-1.74445 0 0
-1.93078 0.0818494 0
-1.74449 0.0795528 0
-1.74445 0 0
-1.55433 0 0
-1.74449 0.0795528 0
-1.55427 0.0776802 0
-1.55433 0 0
-1.36153 0 0
-1.55427 0.0776802 0
-1.36143 0.0763201 0
-1.36153 0 0
-1.16722 0 0
-1.36143 0.0763201 0
-1.16711 0.0754461 0
-1.16722 0 0
-0.972266 0 0
-1.16711 0.0754461 0
-0.972169 0.0749669 0
-0.972266 0 0
-0.777252 0 0
-0.972169 0.0749669 0
-0.777177 0.074767 0
-0.777252 0 0
-0.582487 0 0
-0.777177 0.074767 0
-0.582434 0.0747348 0
-0.582487 0 0
-0.388068 0 0
-0.582434 0.0747348 0
-0.388035 0.0747778 0
-0.388068 0 0
-0.193949 0 0
-0.388035 0.0747778 0
-0.193934 0.0748296 0
-0.193949 0 0
0 0 0
-0.193934 0.0748296 0
0 0.0748512 0
0 0 0
0.193949 1.00843e-23 0
0 0.0748512 0
0.193934 0.0748296 0
0.193949 1.00843e-23 0
0.388068 3.92631e-23 0
0.193934 0.0748296 0
0.388035 0.0747778 0
0.388068 3.92631e-23 0
0.582487 -6.9636e-23 0
0.388035 0.0747778 0
0.582434 0.0747348 0
0.582487 -6.9636e-23 0
0.777252 -2.58604e-23 0
0.582434 0.0747348 0
0.777177 0.074767 0
0.777252 -2.58604e-23 0
0.972266 -7.23337e-23 0
0.777177 0.074767 0
0.972169 0.0749669 0
0.972266 -7.23337e-23 0
1.16722 4.081e-23 0
0.972169 0.0749669 0
1.16711 0.0754461 0
1.16722 4.081e-23 0
1.36153 4.16629e-23 0
1.16711 0.0754461 0
1.36143 0.0763201 0
1.36153 4.16629e-23 0
1.55433 2.95749e-23 0
1.36143 0.0763201 0
1.55427 0.0776802 0
1.55433 2.95749e-23 0
1.74445 -8.19e-23 0
1.55427 0.0776802 0
1.74449 0.0795528 0
1.74445 -8.19e-23 0
1.93058 -5.23244e-23 0
1.74449 0.0795528 0
1.93078 0.0818494 0
1.93058 -5.23244e-23 0
2.11141 -8.64191e-23 0
1.93078 0.0818494 0
2.11186 0.0843044 0
2.11141 -8.64191e-23 0
2.28601 -2.04516e-23 0
2.11186 0.0843044 0
2.2868 0.0863915 0
2.28601 -2.04516e-23 0
2.45432 1.21936e-22 0
2.2868 0.0863915 0
2.45546 0.0872048 0
2.45432 1.21936e-22 0
2.61796 6.10382e-23 0
2.45546 0.0872048 0
2.61931 0.0853666 0
2.61796 6.10382e-23 0
2.78133 8.62874e-23 0
2.61931 0.0853666 0
2.7826 0.0792781 0
2.78133 8.62874e-23 0
2.95253 4.23708e-23 0
2.7826 0.0792781 0
2.95334 0.0684258 0
2.95253 4.23708e-23 0
3.14173 7.15165e-23 0
2.95334 0.0684258 0
3.14199 0.0560586 0
3.14173 7.15165e-23 0
3.35074 2.37943e-23 0
3.14199 0.0560586 0
3.35068 0.0502617 0
3.35074 2.37943e-23 0
3.55834 3.61289e-23 0
3.35068 0.0502617 0
3.55797 0.0574687 0
3.55834 3.61289e-23 0
3.74391 -2.35073e-23 0
3.55797 0.0574687 0
3.74304 0.0713752 0
3.74391 -2.35073e-23 0
3.90956 -4.54177e-23 0
3.74304 0.0713752 0
3.90834 0.0840535 0
3.90956 -4.54177e-23 0
4.06468 -8.16233e-23 0
3.90834 0.0840535 0
4.06354 0.0922981 0
4.06468 -8.16233e-23 0
4.21595 7.31652e-23 0
4.06354 0.0922981 0
4.21528 0.0964629 0
4.21595 7.31652e-23 0
4.36636 -1.14489e-22 0
4.21528 0.0964629 0
4.36636 0.0976867 0
-4.36636 0.0976867 0
-4.21528 0.0964629 0
-4.36636 0.192857 0
-4.21335 0.190605 0
-4.21528 0.0964629 0
-4.06354 0.0922981 0
-4.21335 0.190605 0
-4.06022 0.182907 0
-4.06354 0.0922981 0
-3.90834 0.0840535 0
-4.06022 0.182907 0
-3.90475 0.167519 0
-3.90834 0.0840535 0
-3.74304 0.0713752 0
-3.90475 0.167519 0
-3.74047 0.14348 0
-3.74304 0.0713752 0
-3.55797 0.0574687 0
-3.74047 0.14348 0
-3.55695 0.116565 0
-3.55797 0.0574687 0
-3.35068 0.0502617 0
-3.55695 0.116565 0
-3.35052 0.102354 0
-3.35068 0.0502617 0
-3.14199 0.0560586 0
-3.35052 0.102354 0
-3.14269 0.113875 0
-3.14199 0.0560586 0
-2.95334 0.0684258 0
-3.14269 0.113875 0
-2.9557 0.137905 0
-2.95334 0.0684258 0
-2.7826 0.0792781 0
-2.9557 0.137905 0
-2.78626 0.158543 0
-2.7826 0.0792781 0
-2.61931 0.0853666 0
-2.78626 0.158543 0
-2.62318 0.169906 0
-2.61931 0.0853666 0
-2.45546 0.0872048 0
-2.62318 0.169906 0
-2.45863 0.173233 0
-2.45546 0.0872048 0
-2.2868 0.0863915 0
-2.45863 0.173233 0
-2.28896 0.171614 0
-2.2868 0.0863915 0
-2.11186 0.0843044 0
-2.28896 0.171614 0
-2.11309 0.167629 0
-2.11186 0.0843044 0
-1.93078 0.0818494 0
-2.11309 0.167629 0
-1.93131 0.162968 0
-1.93078 0.0818494 0
-1.74449 0.0795528 0
-1.93131 0.162968 0
-1.74456 0.158616 0
-1.74449 0.0795528 0
-1.55427 0.0776802 0
-1.74456 0.158616 0
-1.55409 0.155071 0
-1.55427 0.0776802 0
-1.36143 0.0763201 0
-1.55409 0.155071 0
-1.36114 0.152502 0
-1.36143 0.0763201 0
-1.16711 0.0754461 0
-1.36114 0.152502 0
-1.1668 0.150854 0
-1.16711 0.0754461 0
-0.972169 0.0749669 0
-1.1668 0.150854 0
-0.971899 0.149955 0
-0.972169 0.0749669 0
-0.777177 0.074767 0
-0.971899 0.149955 0
-0.776966 0.149584 0
-0.777177 0.074767 0
-0.582434 0.0747348 0
-0.776966 0.149584 0
-0.582286 0.149529 0
-0.582434 0.0747348 0
-0.388035 0.0747778 0
-0.582286 0.149529 0
-0.387943 0.149615 0
-0.388035 0.0747778 0
-0.193934 0.0748296 0
-0.387943 0.149615 0
-0.193891 0.149715 0
-0.193934 0.0748296 0
0 0.0748512 0
-0.193891 0.149715 0
0 0.149757 0
0 0.0748512 0
0.193934 0.0748296 0
0 0.149757 0
0.193891 0.149715 0
0.193934 0.0748296 0
0.388035 0.0747778 0
0.193891 0.149715 0
0.387943 0.149615 0
0.388035 0.0747778 0
0.582434 0.0747348 0
0.387943 0.149615 0
0.582286 0.149529 0
0.582434 0.0747348 0
0.777177 0.074767 0
0.582286 0.149529 0
0.776966 0.149584 0
0.777177 0.074767 0
0.972169 0.0749669 0
0.776966 0.149584 0
0.971899 0.149955 0
0.972169 0.0749669 0
1.16711 0.0754461 0
0.971899 0.149955 0
1.1668 0.150854 0
1.16711 0.0754461 0
1.36143 0.0763201 0
1.1668 0.150854 0
1.36114 0.152502 0
1.36143 0.0763201 0
1.55427 0.0776802 0
1.36114 0.152502 0
1.55409 0.155071 0
1.55427 0.0776802 0
1.74449 0.0795528 0
1.55409 0.155071 0
1.74456 0.158616 0
1.74449 0.0795528 0
1.93078 0.0818494 0
1.74456 0.158616 0
1.93131 0.162968 0
1.93078 0.0818494 0
2.11186 0.0843044 0
1.93131 0.162968 0
2.11309 0.167629 0
2.11186 0.0843044 0
2.2868 0.0863915 0
2.11309 0.167629 0
2.28896 0.171614 0
2.2868 0.0863915 0
2.45546 0.0872048 0
2.28896 0.171614 0
2.45863 0.173233 0
2.45546 0.0872048 0
2.61931 0.0853666 0
2.45863 0.173233 0
2.62318 0.169906 0
2.61931 0.0853666 0
2.7826 0.0792781 0
2.62318 0.169906 0
2.78626 0.158543 0
2.7826 0.0792781 0
2.95334 0.0684258 0
2.78626 0.158543 0
2.9557 0.137905 0
2.95334 0.0684258 0
3.14199 0.0560586 0
2.9557 0.137905 0
3.14269 0.113875 0
3.14199 0.0560586 0
3.35068 0.0502617 0
3.14269 0.113875 0
3.35052 0.102354 0
3.35068 0.0502617 0
3.55797 0.0574687 0
3.35052 0.102354 0
3.55695 0.116565 0
3.55797 0.0574687 0
3.74304 0.0713752 0
3.55695 0.116565 0
3.74047 0.14348 0
3.74304 0.0713752 0
3.90834 0.0840535 0
3.74047 0.14348 0
3.90475 0.167519 0
3.90834 0.0840535 0
4.06354 0.0922981 0
3.90475 0.167519 0
4.06022 0.182907 0
4.06354 0.0922981 0
4.21528 0.0964629 0
4.06022 0.182907 0
4.21335 0.190605 0
4.21528 0.0964629 0
4.36636 0.0976867 0
4.21335 0.190605 0
4.36636 0.192857 0
-4.36636 0.192857 0
-4.21335 0.190605 0
-4.36636 0.285531 0
-4.21026 0.28246 0
-4.21335 0.190605 0
-4.06022 0.182907 0
-4.21026 0.28246 0
-4.05485 0.271908 0
-4.06022 0.182907 0
-3.90475 0.167519 0
-4.05485 0.271908 0
-3.89884 0.250544 0
-3.90475 0.167519 0
-3.74047 0.14348 0
-3.89884 0.250544 0
-3.73624 0.216419 0
-3.74047 0.14348 0
-3.55695 0.116565 0
-3.73624 0.216419 0
-3.55534 0.177099 0
-3.55695 0.116565 0
-3.35052 0.102354 0
-3.55534 0.177099 0
-3.35027 0.155794 0
-3.35052 0.102354 0
-3.14269 0.113875 0
-3.35027 0.155794 0
-3.14379 0.173279 0
-3.14269 0.113875 0
-2.9557 0.137905 0
-3.14379 0.173279 0
-2.95957 0.208565 0
-2.9557 0.137905 0
-2.78626 0.158543 0
-2.95957 0.208565 0
-2.7922 0.237964 0
-2.78626 0.158543 0
-2.62318 0.169906 0
-2.7922 0.237964 0
-2.6293 0.253716 0
-2.62318 0.169906 0
-2.45863 0.173233 0
-2.6293 0.253716 0
-2.46356 0.258128 0
-2.45863 0.173233 0
-2.28896 0.171614 0
-2.46356 0.258128 0
-2.29227 0.255681 0
-2.28896 0.171614 0
-2.11309 0.167629 0
-2.29227 0.255681 0
-2.11495 0.249975 0
-2.11309 0.167629 0
-1.93131 0.162968 0
-2.11495 0.249975 0
-1.93209 0.243351 0
-1.93131 0.162968 0
-1.74456 0.158616 0
-1.93209 0.243351 0
-1.74465 0.23718 0
-1.74456 0.158616 0
-1.55409 0.155071 0
-1.74465 0.23718 0
-1.55379 0.232165 0
-1.55409 0.155071 0
-1.36114 0.152502 0
-1.55379 0.232165 0
-1.36068 0.228537 0
-1.36114 0.152502 0
-1.1668 0.150854 0
-1.36068 0.228537 0
-1.16632 0.226219 0
-1.1668 0.150854 0
-0.971899 0.149955 0
-1.16632 0.226219 0
-0.97148 0.224962 0
-0.971899 0.149955 0
-0.776966 0.149584 0
-0.97148 0.224962 0
-0.776641 0.224451 0
-0.776966 0.149584 0
-0.582286 0.149529 0
-0.776641 0.224451 0
-0.582058 0.224384 0
-0.582286 0.149529 0
-0.387943 0.149615 0
-0.582058 0.224384 0
-0.387803 0.224512 0
-0.387943 0.149615 0
-0.193891 0.149715 0
-0.387803 0.224512 0
-0.193825 0.224659 0
-0.193891 0.149715 0
0 0.149757 0
-0.193825 0.224659 0
0 0.224719 0
0 0.149757 0
0.193891 0.149715 0
0 0.224719 0
0.193825 0.224659 0
0.193891 0.149715 0
0.387943 0.149615 0
0.193825 0.224659 0
0.387803 0.224512 0
0.387943 0.149615 0
0.582286 0.149529 0
0.387803 0.224512 0
0.582058 0.224384 0
0.582286 0.149529 0
0.776966 0.149584 0
0.582058 0.224384 0
0.776641 0.224451 0
0.776966 0.149584 0
0.971899 0.149955 0
0.776641 0.224451 0
0.97148 0.224962 0
0.971899 0.149955 0
1.1668 0.150854 0
0.97148 0.224962 0
[...]
POINT_DATA 2688
SCALARS x1_displacement double 1
LOOKUP_TABLE default
1.26571 1.18145 1.26571 1.18212 1.18145 1.09805 1.18212 1.09919 1.09805 1.0185 1.09919 1.01972 1.0185 0.949479 1.01972 0.950351 0.949479 0.900383 0.950351 0.900754 0.900383 0.873306 0.900754 0.873367 0.873306 0.84765 0.873367 0.84739 0.84765 0.80219 0.84739 0.80138 0.80219 0.738717 0.80138 0.737455 0.738717 0.667422 0.737455 0.666066 0.667422 0.596389 0.666066 0.595254 0.596389 0.530027 0.595254 0.529242 0.530027 0.469959 0.529242 0.469506 0.469959 0.416121 0.469506 0.415921 0.416121 0.367576 0.415921 0.367542 0.367576 0.32303 0.367542 0.323091 0.32303 0.281158 0.323091 0.28126 0.281158 0.240802 0.28126 0.240911 0.240802 0.201084 0.240911 0.201181 0.201084 0.161427 0.201181 0.161502 0.161427 0.121522 0.161502 0.121575 0.121522 0.0812712 0.121575 0.0813043 0.0812712 0.0407205 0.0813043 0.0407362 0.0407205 0 0.0407362 0 0 -0.0407205 0 -0.0407362 -0.0407205 -0.0812712 -0.0407362 -0.0813043 -0.0812712 -0.121522 -0.0813043 -0.121575 -0.121522 -0.161427 -0.121575 -0.161502 -0.161427 -0.201084 -0.161502 -0.201181 -0.201084 -0.240802 -0.201181 -0.240911 -0.240802 -0.281158 -0.240911 -0.28126 -0.281158 -0.32303 -0.28126 -0.323091 -0.32303 -0.367576 -0.323091 -0.367542 -0.367576 -0.416121 -0.367542 -0.415921 -0.416121 -0.469959 -0.415921 -0.469506 -0.469959 -0.530027 -0.469506 -0.529242 -0.530027 -0.596389 -0.529242 -0.595254 -0.596389 -0.667422 -0.595254 -0.666066 -0.667422 -0.738717 -0.666066 -0.737455 -0.738717 -0.80219 -0.737455 -0.80138 -0.80219 -0.84765 -0.80138 -0.84739 -0.84765 -0.873306 -0.84739 -0.873367 -0.873306 -0.900383 -0.873367 -0.900754 -0.900383 -0.949479 -0.900754 -0.950351 -0.949479 -1.0185 -0.950351 -1.01972 -1.0185 -1.09805 -1.01972 -1.09919 -1.09805 -1.18145 -1.09919 -1.18212 -1.18145 -1.26571 -1.18212 -1.26571 1.26571 1.18212 1.26571 1.18405 1.18212 1.09919 1.18405 1.10251 1.09919 1.01972 1.10251 1.02331 1.01972 0.950351 1.02331 0.952916 0.950351 0.900754 0.952916 0.90177 0.900754 0.873367 0.90177 0.873531 0.873367 0.84739 0.873531 0.846695 0.84739 0.80138 0.846695 0.799024 0.80138 0.737455 0.799024 0.733791 0.737455 0.666066 0.733791 0.662204 0.666066 0.595254 0.662204 0.59208 0.595254 0.529242 0.59208 0.527077 0.529242 0.469506 0.527077 0.468275 0.469506 0.415921 0.468275 0.415391 0.415921 0.367542 0.415391 0.367469 0.367542 0.323091 0.367469 0.323273 0.323091 0.28126 0.323273 0.281551 0.28126 0.240911 0.281551 0.241218 0.240911 0.201181 0.241218 0.201451 0.201181 0.161502 0.201451 0.161713 0.161502 0.121575 0.161713 0.121723 0.121575 0.0813043 0.121723 0.081396 0.0813043 0.0407362 0.081396 0.0407794 0.0407362 0 0.0407794 0 0 -0.0407362 0 -0.0407794 -0.0407362 -0.0813043 -0.0407794 -0.081396 -0.0813043 -0.121575 -0.081396 -0.121723 -0.121575 -0.161502 -0.121723 -0.161713 -0.161502 -0.201181 -0.161713 -0.201451 -0.201181 -0.240911 -0.201451 -0.241218 -0.240911 -0.28126 -0.241218 -0.281551 -0.28126 -0.323091 -0.281551 -0.323273 -0.323091 -0.367542 -0.323273 -0.367469 -0.367542 -0.415921 -0.367469 -0.415391 -0.415921 -0.469506 -0.415391 -0.468275 -0.469506 -0.529242 -0.468275 -0.527077 -0.529242 -0.595254 -0.527077 -0.59208 -0.595254 -0.666066 -0.59208 -0.662204 -0.666066 -0.737455 -0.662204 -0.733791 -0.737455 -0.80138 -0.733791 -0.799024 -0.80138 -0.84739 -0.799024 -0.846695 -0.84739 -0.873367 -0.846695 -0.873531 -0.873367 -0.900754 -0.873531 -0.90177 -0.900754 -0.950351 -0.90177 -0.952916 -0.950351 -1.01972 -0.952916 -1.02331 -1.01972 -1.09919 -1.02331 -1.10251 -1.09919 -1.18212 -1.10251 -1.18405 -1.18212 -1.26571 -1.18405 -1.26571 1.26571 1.18405 1.26571 1.18714 1.18405 1.10251 1.18714 1.10788 1.10251 1.02331 1.10788 1.02922 1.02331 0.952916 1.02922 0.957155 0.952916 0.90177 0.957155 0.903378 0.90177 0.873531 0.903378 0.873784 0.873531 0.846695 0.873784 0.845595 0.846695 0.799024 0.845595 0.795152 0.799024 0.733791 0.795152 0.72785 0.733791 0.662204 0.72785 0.656082 0.662204 0.59208 0.656082 0.587152 0.59208 0.527077 0.587152 0.52377 0.527077 0.468275 0.52377 0.46642 0.468275 0.415391 0.46642 0.41461 0.415391 0.367469 0.41461 0.367382 0.367469 0.323273 0.367382 0.32357 0.323273 0.281551 0.32357 0.282011 0.281551 0.241218 0.282011 0.241697 0.241218 0.201451 0.241697 0.20187 0.201451 0.161713 0.20187 0.162038 0.161713 0.121723 0.162038 0.121951 0.121723 0.081396 0.121951 0.0815363 0.081396 0.0407794 0.0815363 0.0408454 0.0407794 0 0.0408454 0 0 -0.0407794 0 -0.0408454 -0.0407794 -0.081396 -0.0408454 -0.0815363 -0.081396 -0.121723 -0.0815363 -0.121951 -0.121723 -0.161713 -0.121951 -0.162038 -0.161713 -0.201451 -0.162038 -0.20187 -0.201451 -0.241218 -0.20187 -0.241697 -0.241218 -0.281551 -0.241697 -0.282011 -0.281551 -0.323273 -0.282011 -0.32357 -0.323273 -0.367469 -0.32357 -0.367382 -0.367469 -0.415391 -0.367382 -0.41461 -0.415391 -0.468275 -0.41461 -0.46642 -0.468275 -0.527077 -0.46642 -0.52377 -0.527077 -0.59208 -0.52377 -0.587152 -0.59208 -0.662204 -0.587152 -0.656082 -0.662204 -0.733791 -0.656082 -0.72785 -0.733791 -0.799024 -0.72785 -0.795152 -0.799024 -0.846695 -0.795152 -0.845595 -0.846695 -0.873531 -0.845595 -0.873784 -0.873531 -0.90177 -0.873784 -0.903378 -0.90177 -0.952916 -0.903378 -0.957155 -0.952916 -1.02331 -0.957155 -1.02922 -1.02331 -1.10251 -1.02922 -1.10788 -1.10251 -1.18405 -1.10788 -1.18714 -1.18405 -1.26571 -1.18714 -1.26571 1.26571 1.18714 1.26571 1.19129 1.18714 1.10788 1.19129 1.11525 1.10788 1.02922 1.11525 1.03755 1.02922 0.957155 1.03755 0.963292 0.957155 0.903378 0.963292 0.905679 0.903378 0.873784 0.905679 0.874115 0.873784 0.845595 0.874115 0.843989 0.845595 0.795152 0.843989 0.789567 0.795152 0.72785 0.789567 0.719579 0.72785 0.656082 0.719579 0.647871 0.656082 0.587152 0.647871 0.580744 0.587152 0.52377 0.580744 0.519572 0.52377 0.46642 0.519572 0.464118 0.46642 0.41461 0.464118 0.413682 0.41461 0.367382 0.413682 0.367328 0.367382 0.32357 0.367328 0.323994 0.32357 0.282011 0.323994 0.282629 0.282011 0.241697 0.282629 0.242328 0.241697 0.20187 0.242328 0.202414 0.20187 0.162038 0.202414 0.162457 0.162038 0.121951 0.162457 0.122242 0.121951 0.0815363 0.122242 0.0817145 0.0815363 0.0408454 0.0817145 0.0409288 0.0408454 0 0.0409288 0 0 -0.0408454 0 -0.0409288 -0.0408454 -0.0815363 -0.0409288 -0.0817145 -0.0815363 -0.121951 -0.0817145 -0.122242 -0.121951 -0.162038 -0.122242 -0.162457 -0.162038 -0.20187 -0.162457 -0.202414 -0.20187 -0.241697 -0.202414 -0.242328 -0.241697 -0.282011 -0.242328 -0.282629 -0.282011 -0.32357 -0.282629 -0.323994 -0.32357 -0.367382 -0.323994 -0.367328 -0.367382 -0.41461 -0.367328 -0.413682 -0.41461 -0.46642 -0.413682 -0.464118 -0.46642 -0.52377 -0.464118 -0.519572 -0.52377 -0.587152 -0.519572 -0.580744 -0.587152 -0.656082 -0.580744 -0.647871 -0.656082 -0.72785 -0.647871 -0.719579 -0.72785 -0.795152 -0.719579 -0.789567 -0.795152 -0.845595 -0.789567 -0.843989 -0.845595 -0.873784 -0.843989 -0.874115 -0.873784 -0.903378 -0.874115 -0.905679 -0.903378 -0.957155 -0.905679 -0.963292 -0.957155 -1.02922 -0.963292 -1.03755 -1.02922 -1.10788 -1.03755 -1.11525 -1.10788 -1.18714 -1.11525 -1.19129 -1.18714 -1.26571 -1.19129 -1.26571 1.26571 1.19129 1.26571 1.19643 1.19129 1.11525 1.19643 1.12461 1.11525 1.03755 1.12461 1.0486 1.03755 0.963292 1.0486 0.9718 0.963292 0.905679 0.9718 0.908928 0.905679 0.874115 0.908928 0.874518 0.874115 0.843989 0.874518 0.84163 0.843989 0.789567 0.84163 0.781841 0.789567 0.719579 0.781841 0.708782 0.719579 0.647871 0.708782 0.637711 0.647871 0.580744 0.637711 0.573142 0.580744 0.519572 0.573142 0.514751 0.519572 0.464118 0.514751 0.461563 0.464118 0.413682 0.461563 0.412727 0.413682 0.367328 0.412727 0.367372 0.367328 0.323994 0.367372 0.324569 0.323994 0.282629 0.324569 0.283404 0.282629 0.242328 0.283404 0.243096 0.242328 0.202414 0.243096 0.203065 0.202414 0.162457 0.203065 0.162951 0.162457 0.122242 0.162951 0.12258 0.122242 0.0817145 0.12258 0.0819194 0.0817145 0.0409288 0.0819194 0.0410239 0.0409288 0 0.0410239 0 0 -0.0409288 0 -0.0410239 -0.0409288 -0.0817145 -0.0410239 -0.0819194 -0.0817145 -0.122242 -0.0819194 -0.12258 -0.122242 -0.162457 -0.12258 -0.162951 -0.162457 -0.202414 -0.162951 -0.203065 -0.202414 -0.242328 -0.203065 -0.243096 -0.242328 -0.282629 -0.243096 -0.283404 -0.282629 -0.323994 -0.283404 -0.324569 -0.323994 -0.367328 -0.324569 -0.367372 -0.367328 -0.413682 -0.367372 -0.412727 -0.413682 -0.464118 -0.412727 -0.461563 -0.464118 -0.519572 -0.461563 -0.514751 -0.519572 -0.580744 -0.514751 -0.573142 -0.580744 -0.647871 -0.573142 -0.637711 -0.647871 -0.719579 -0.637711 -0.708782 -0.719579 -0.789567 -0.708782 -0.781841 -0.789567 -0.843989 -0.781841 -0.84163 -0.843989 -0.874115 -0.84163 -0.874518 -0.874115 -0.905679 -0.874518 -0.908928 -0.905679 -0.963292 -0.908928 -0.9718 -0.963292 -1.03755 -0.9718 -1.0486 -1.03755 -1.11525 -1.0486 -1.12461 -1.11525 -1.19129 -1.12461 -1.19643 -1.19129 -1.26571 -1.19643 -1.26571 1.26571 1.19643 1.26571 1.20243 1.19643 1.12461 1.20243 1.13594 1.12461 1.0486 1.13594 1.06273 1.0486 0.9718 1.06273 0.983414 0.9718 0.908928 0.983414 0.913582 0.908928 0.874518 0.913582 0.87499 0.874518 0.84163 0.87499 0.838083 0.84163 0.781841 0.838083 0.77128 0.781841 0.708782 0.77128 0.695165 0.708782 0.637711 0.695165 0.625763 0.637711 0.573142 0.625763 0.564664 0.573142 0.514751 0.564664 0.509591 0.514751 0.461563 0.509591 0.458962 0.461563 0.412727 0.458962 0.411877 0.412727 0.367372 0.411877 0.367587 0.367372 0.324569 0.367587 0.325324 0.324569 0.283404 0.325324 0.284338 0.283404 0.243096 0.284338 0.243988 0.243096 0.203065 0.243988 0.203803 0.203065 0.162951 0.203803 0.1635 0.162951 0.12258 0.1635 0.12295 0.12258 0.0819194 0.12295 0.0821393 0.0819194 0.0410239 0.0821393 0.0411248 0.0410239 0 0.0411248 0 0 -0.0410239 0 -0.0411248 -0.0410239 -0.0819194 -0.0411248 -0.0821393 -0.0819194 -0.12258 -0.0821393 -0.12295 -0.12258 -0.162951 -0.12295 -0.1635 -0.162951 -0.203065 -0.1635 -0.203803 -0.203065 -0.243096 -0.203803 -0.243988 -0.243096 -0.283404 -0.243988 -0.284338 -0.283404 -0.324569 -0.284338 -0.325324 -0.324569 -0.367372 -0.325324 -0.367587 -0.367372 -0.412727 -0.367587 -0.411877 -0.412727 -0.461563 -0.411877 -0.458962 -0.461563 -0.514751 -0.458962 -0.509591 -0.514751 -0.573142 -0.509591 -0.564664 -0.573142 -0.637711 -0.564664 -0.625763 -0.637711 -0.708782 -0.625763 -0.695165 -0.708782 -0.781841 -0.695165 -0.77128 -0.781841 -0.84163 -0.77128 -0.838083 -0.84163 -0.874518 -0.838083 -0.87499 -0.874518 -0.908928 -0.87499 -0.913582 -0.908928 -0.9718 -0.913582 -0.983414 -0.9718 -1.0486 -0.983414 -1.06273 -1.0486 -1.12461 -1.06273 -1.13594 -1.12461 -1.19643 -1.13594 -1.20243 -1.19643 -1.26571 -1.20243 -1.26571 1.26571 1.20243 1.26571 1.20912 1.20243 1.13594 1.20912 1.14907 1.13594 1.06273 1.14907 1.0803 1.06273 0.983414 1.0803 0.999186 0.983414 0.913582 0.999186 0.920402 0.913582 0.87499 0.920402 0.875528 0.87499 0.838083 0.875528 0.832611 0.838083 0.77128 0.832611 0.756872 0.77128 0.695165 0.756872 0.678415 0.695165 0.625763 0.678415 0.612285 0.625763 0.564664 0.612285 0.55567 0.564664 0.509591 0.55567 0.504384 0.509591 0.458962 0.504384 0.456524 0.458962 0.411877 0.456524 0.411271 0.411877 0.367587 0.411271 0.368052 0.367587 0.325324 0.368052 0.326296 0.325324 0.284338 0.326296 0.28544 0.284338 0.243988 0.28544 0.244995 0.243988 0.203803 0.244995 0.20461 0.203803 0.1635 0.20461 0.164083 0.1635 0.12295 0.164083 0.123333 0.12295 0.0821393 0.123333 0.082362 0.0821393 0.0411248 0.082362 0.0412252 0.0411248 0 0.0412252 0 0 -0.0411248 0 -0.0412252 -0.0411248 -0.0821393 -0.0412252 -0.082362 -0.0821393 -0.12295 -0.082362 -0.123333 -0.12295 -0.1635 -0.123333 -0.164083 -0.1635 -0.203803 -0.164083 -0.20461 -0.203803 -0.243988 -0.20461 -0.244995 -0.243988 -0.284338 -0.244995 -0.28544 -0.284338 -0.325324 -0.28544 -0.326296 -0.325324 -0.367587 -0.326296 -0.368052 -0.367587 -0.411877 -0.368052 -0.411271 -0.411877 -0.458962 -0.411271 -0.456524 -0.458962 -0.509591 -0.456524 -0.504384 -0.509591 -0.564664 -0.504384 -0.55567 -0.564664 -0.625763 -0.55567 -0.612285 -0.625763 -0.695165 -0.612285 -0.678415 -0.695165 -0.77128 -0.678415 -0.756872 -0.77128 -0.838083 -0.756872 -0.832611 -0.838083 -0.87499 -0.832611 -0.875528 -0.87499 -0.913582 -0.875528 -0.920402 -0.913582 -0.983414 -0.920402 -0.999186 -0.983414 -1.06273 -0.999186 -1.0803 -1.06273 -1.13594 -1.0803 -1.14907 -1.13594 -1.20243 -1.14907 -1.20912 -1.20243 -1.26571 -1.20912 -1.26571 1.26571 1.20912 1.26571 1.21627 1.20912 1.14907 1.21627 1.16365 1.14907 1.0803 1.16365 1.10151 1.0803 0.999186 1.10151 1.02053 0.999186 0.920402 1.02053 0.930644 0.920402 0.875528 0.930644 0.876134 0.875528 0.832611 0.876134 0.82399 0.832611 0.756872 0.82399 0.737213 0.756872 0.678415 0.737213 0.658351 0.678415 0.612285 0.658351 0.597705 0.612285 0.55567 0.597705 0.546565 0.55567 0.504384 0.546565 0.499429 0.504384 0.456524 0.499429 0.454461 0.456524 0.411271 0.454461 0.411046 0.411271 0.368052 0.411046 0.368845 0.368052 0.326296 0.368845 0.327521 0.326296 0.28544 0.327521 0.286714 0.28544 0.244995 0.286714 0.246105 0.244995 0.20461 0.246105 0.205467 0.20461 0.164083 0.205467 0.164682 0.164083 0.123333 0.164682 0.123712 0.123333 0.082362 0.123712 0.0825753 0.082362 0.0412252 0.0825753 0.0413188 0.0412252 0 0.0413188 0 0 -0.0412252 0 -0.0413188 -0.0412252 -0.082362 -0.0413188 -0.0825753 -0.082362 -0.123333 -0.0825753 -0.123712 -0.123333 -0.164083 -0.123712 -0.164682 -0.164083 -0.20461 -0.164682 -0.205467 -0.20461 -0.244995 -0.205467 -0.246105 -0.244995 -0.28544 -0.246105 -0.286714 -0.28544 -0.326296 -0.286714 -0.327521 -0.326296 -0.368052 -0.327521 -0.368845 -0.368052 -0.411271 -0.368845 -0.411046 -0.411271 -0.456524 -0.411046 -0.454461 -0.456524 -0.504384 -0.454461 -0.499429 -0.504384 -0.55567 -0.499429 -0.546565 -0.55567 -0.612285 -0.546565 -0.597705 -0.612285 -0.678415 -0.597705 -0.658351 -0.678415 -0.756872 -0.658351 -0.737213 -0.756872 -0.832611 -0.737213 -0.82399 -0.832611 -0.875528 -0.82399 -0.876134 -0.875528 -0.920402 -0.876134 -0.930644 -0.920402 -0.999186 -0.930644 -1.02053 -0.999186 -1.0803 -1.02053 -1.10151 -1.0803 -1.14907 -1.10151 -1.16365 -1.14907 -1.20912 -1.16365 -1.21627 -1.20912 -1.26571 -1.21627 -1.26571 1.26571 1.21627 1.26571 1.22365 1.21627 1.16365 1.22365 1.17913 1.16365 1.10151 1.17913 1.1261 1.10151 1.02053 1.1261 1.04923 1.02053 0.930644 1.04923 0.946436 0.930644 0.876134 0.946436 0.87681 0.876134 0.82399 0.87681 0.810111 0.82399 0.737213 0.810111 0.710485 0.737213 0.658351 0.710485 0.635218 0.658351 0.597705 0.635218 0.58266 0.597705 0.546565 0.58266 0.537771 0.546565 0.499429 0.537771 0.49502 0.499429 0.454461 0.49502 0.452981 0.454461 0.411046 0.452981 0.411337 0.411046 0.368845 0.411337 0.370045 0.368845 0.327521 0.370045 0.329032 0.327521 0.286714 0.329032 0.288165 0.286714 0.246105 0.288165 0.247304 0.246105 0.205467 0.247304 0.206353 0.205467 0.164682 0.206353 0.165273 0.164682 0.123712 0.165273 0.124069 0.123712 0.0825753 0.124069 0.0827663 0.0825753 0.0413188 0.0827663 0.041399 0.0413188 0 0.041399 0 0 -0.0413188 0 -0.041399 -0.0413188 -0.0825753 -0.041399 -0.0827663 -0.0825753 -0.123712 -0.0827663 -0.124069 -0.123712 -0.164682 -0.124069 -0.165273 -0.164682 -0.205467 -0.165273 -0.206353 -0.205467 -0.246105 -0.206353 -0.247304 -0.246105 -0.286714 -0.247304 -0.288165 -0.286714 -0.327521 -0.288165 -0.329032 -0.327521 -0.368845 -0.329032 -0.370045 -0.368845 -0.411046 -0.370045 -0.411337 -0.411046 -0.454461 -0.411337 -0.452981 -0.454461 -0.499429 -0.452981 -0.49502 -0.499429 -0.546565 -0.49502 -0.537771 -0.546565 -0.597705 -0.537771 -0.58266 -0.597705 -0.658351 -0.58266 -0.635218 -0.658351 -0.737213 -0.635218 -0.710485 -0.737213 -0.82399 -0.710485 -0.810111 -0.82399 -0.876134 -0.810111 -0.87681 -0.876134 -0.930644 -0.87681 -0.946436 -0.930644 -1.02053 -0.946436 -1.04923 -1.02053 -1.10151 -1.04923 -1.1261 -1.10151 -1.16365 -1.1261 -1.17913 -1.16365 -1.21627 -1.17913 -1.22365 -1.21627 -1.26571 -1.22365 -1.26571 1.26571 1.22365 1.26571 1.231 1.22365 1.17913 1.231 1.19479 1.17913 1.1261 1.19479 1.1529 1.1261 1.04923 1.1529 1.0871 1.04923 0.946436 1.0871 0.97164 0.946436 0.87681 0.97164 0.877557 0.87681 0.810111 0.877557 0.787092 0.810111 0.710485 0.787092 0.674733 0.710485 0.635218 0.674733 0.610159 0.635218 0.58266 0.610159 0.567917 0.58266 0.537771 0.567917 0.529695 0.537771 0.49502 0.529695 0.491452 0.49502 0.452981 0.491452 0.452284 0.452981 0.411337 0.452284 0.412273 0.411337 0.370045 0.412273 0.371722 0.370045 0.329032 0.371722 0.330859 0.329032 0.288165 0.330859 0.289793 0.288165 0.247304 0.289793 0.248576 0.247304 0.206353 0.248576 0.207244 0.206353 0.165273 0.207244 0.165835 0.165273 0.124069 0.165835 0.124385 0.124069 0.0827663 0.124385 0.082922 0.0827663 0.041399 0.082922 0.0414594 0.041399 0 0.0414594 0 0 -0.041399 0 -0.0414594 -0.041399 -0.0827663 -0.0414594 -0.082922 -0.0827663 -0.124069 -0.082922 -0.124385 -0.124069 -0.165273 -0.124385 -0.165835 -0.165273 -0.206353 -0.165835 -0.207244 -0.206353 -0.247304 -0.207244 -0.248576 -0.247304 -0.288165 -0.248576 -0.289793 -0.288165 -0.329032 -0.289793 -0.330859 -0.329032 -0.370045 -0.330859 -0.371722 -0.370045 -0.411337 -0.371722 -0.412273 -0.411337 -0.452981 -0.412273 -0.452284 -0.452981 -0.49502 -0.452284 -0.491452 -0.49502 -0.537771 -0.491452 -0.529695 -0.537771 -0.58266 -0.529695 -0.567917 -0.58266 -0.635218 -0.567917 -0.610159 -0.635218 -0.710485 -0.610159 -0.674733 -0.710485 -0.810111 -0.674733 -0.787092 -0.810111 -0.87681 -0.787092 -0.877557 -0.87681 -0.946436 -0.877557 -0.97164 -0.946436 -1.04923 -0.97164 -1.0871 -1.04923 -1.1261 -1.0871 -1.1529 -1.1261 -1.17913 -1.1529 -1.19479 -1.17913 -1.22365 -1.19479 -1.231 -1.22365 -1.26571 -1.231 -1.26571 1.26571 1.231 1.26571 1.23809 1.231 1.19479 1.23809 1.2101 1.19479 1.1529 1.2101 1.17961 1.1529 1.0871 1.17961 1.13415 1.0871 0.97164 1.13415 1.01427 0.97164 0.877557 1.01427 0.878343 0.877557 0.787092 0.878343 0.746735 0.787092 0.674733 0.746735 0.629751 0.674733 0.610159 0.629751 0.585451 0.610159 0.567917 0.585451 0.554084 0.567917 0.529695 0.554084 0.522752 0.529695 0.491452 0.522752 0.489004 0.491452 0.452284 0.489004 0.452562 0.452284 0.412273 0.452562 0.413975 0.412273 0.371722 0.413975 0.373943 0.371722 0.330859 0.373943 0.333022 0.330859 0.289793 0.333022 0.291591 0.289793 0.248576 0.291591 0.2499 0.248576 0.207244 0.2499 0.208115 0.207244 0.165835 0.208115 0.166342 0.165835 0.124385 0.166342 0.124641 0.124385 0.082922 0.124641 0.0830293 0.082922 0.0414594 0.0830293 0.0414933 0.0414594 0 0.0414933 0 0 -0.0414594 0 -0.0414933 -0.0414594 -0.082922 -0.0414933 -0.0830293 -0.082922 -0.124385 -0.0830293 -0.124641 -0.124385 -0.165835 -0.124641 -0.166342 -0.165835 -0.207244 -0.166342 -0.208115 -0.207244 -0.248576 -0.208115 -0.2499 -0.248576 -0.289793 -0.2499 -0.291591 -0.289793 -0.330859 -0.291591 -0.333022 -0.330859 -0.371722 -0.333022 -0.373943 -0.371722 -0.412273 -0.373943 -0.413975 -0.412273 -0.452284 -0.413975 -0.452562 -0.452284 -0.491452 -0.452562 -0.489004 -0.491452 -0.529695 -0.489004 -0.522752 -0.529695 -0.567917 -0.522752 -0.554084 -0.567917 -0.610159 -0.554084 -0.585451 -0.610159 -0.674733 -0.585451 -0.629751 -0.674733 -0.787092 -0.629751 -0.746735 -0.787092 -0.877557 -0.746735 -0.878343 -0.877557 -0.97164 -0.878343 -1.01427 -0.97164 -1.0871 -1.01427 -1.13415 -1.0871 -1.1529 -1.13415 -1.17961 -1.1529 -1.19479 -1.17961 -1.2101 -1.19479 -1.231 -1.2101 -1.23809 -1.231 -1.26571 -1.23809 -1.26571 1.26571 1.23809 1.26571 1.24466 1.23809 1.2101 1.24466 1.2245 1.2101 1.17961 1.2245 1.20497 1.17961 1.13415 1.20497 1.18164 1.13415 1.01427 1.18164 1.09263 1.01427 0.878343 1.09263 0.878973 0.878343 0.746735 0.878973 0.669895 0.746735 0.629751 0.669895 0.584275 0.629751 0.585451 0.584275 0.562389 0.585451 0.554084 0.562389 0.541801 0.554084 0.522752 0.541801 0.517324 0.522752 0.489004 0.517324 0.487942 0.489004 0.452562 0.487942 0.453989 0.452562 0.413975 0.453989 0.416555 0.413975 0.373943 0.416555 0.376763 0.373943 0.333022 0.376763 0.335536 0.333022 0.291591 0.335536 0.293545 0.291591 0.2499 0.293545 0.251247 0.2499 0.208115 0.251247 0.208934 0.208115 0.166342 0.208934 0.166769 0.166342 0