# vtk DataFile Version 3.0
#This file was generated by the deal.II library on 2017/9/27 at 13:18:58
ASCII
DATASET UNSTRUCTURED_GRID

POINTS 2688 double
-4.36201 -1.03856e-22 0
-4.20916 0 0
-4.36201 0.0959462 0
-4.20857 0.0948032 0
-4.20916 0 0
-4.05533 0 0
-4.20857 0.0948032 0
-4.05433 0.090921 0
-4.05533 0 0
-3.89755 0 0
-4.05433 0.090921 0
-3.8965 0.0832689 0
-3.89755 0 0
-3.72951 0 0
-3.8965 0.0832689 0
-3.72877 0.0715738 0
-3.72951 0 0
-3.54278 0 0
-3.72877 0.0715738 0
-3.54247 0.0588297 0
-3.54278 0 0
-3.33611 0 0
-3.54247 0.0588297 0
-3.33605 0.0522765 0
-3.33611 0 0
-3.12824 0 0
-3.33605 0.0522765 0
-3.12844 0.0575583 0
-3.12824 0 0
-2.93839 0 0
-3.12844 0.0575583 0
-2.93906 0.0689009 0
-2.93839 0 0
-2.76548 0 0
-2.93906 0.0689009 0
-2.76655 0.0789202 0
-2.76548 0 0
-2.60034 0 0
-2.76655 0.0789202 0
-2.60151 0.0845841 0
-2.60034 0 0
-2.4354 0 0
-2.60151 0.0845841 0
-2.43638 0.0863154 0
-2.4354 0 0
-2.26644 0 0
-2.43638 0.0863154 0
-2.26712 0.0855757 0
-2.26644 0 0
-2.09184 0 0
-2.26712 0.0855757 0
-2.09223 0.0836458 0
-2.09184 0 0
-1.91161 0 0
-2.09223 0.0836458 0
-1.91178 0.0813751 0
-1.91161 0 0
-1.72659 0 0
-1.91178 0.0813751 0
-1.72661 0.0792574 0
-1.72659 0 0
-1.53795 0 0
-1.72661 0.0792574 0
-1.53789 0.0775401 0
-1.53795 0 0
-1.34693 0 0
-1.53789 0.0775401 0
-1.34683 0.0763034 0
-1.34693 0 0
-1.15457 0 0
-1.34683 0.0763034 0
-1.15447 0.0755201 0
-1.15457 0 0
-0.961677 0 0
-1.15447 0.0755201 0
-0.961588 0.0751028 0
-0.961677 0 0
-0.768774 0 0
-0.961588 0.0751028 0
-0.768705 0.074942 0
-0.768774 0 0
-0.576135 0 0
-0.768705 0.074942 0
-0.576086 0.0749325 0
-0.576135 0 0
-0.383839 0 0
-0.576086 0.0749325 0
-0.383809 0.0749876 0
-0.383839 0 0
-0.191838 0 0
-0.383809 0.0749876 0
-0.191824 0.075045 0
-0.191838 0 0
0 0 0
-0.191824 0.075045 0
0 0.0750682 0
0 0 0
0.191838 8.9216e-24 0
0 0.0750682 0
0.191824 0.075045 0
0.191838 8.9216e-24 0
0.383839 3.25004e-23 0
0.191824 0.075045 0
0.383809 0.0749876 0
0.383839 3.25004e-23 0
0.576135 -5.99158e-23 0
0.383809 0.0749876 0
0.576086 0.0749325 0
0.576135 -5.99158e-23 0
0.768774 -2.37087e-23 0
0.576086 0.0749325 0
0.768705 0.074942 0
0.768774 -2.37087e-23 0
0.961677 -6.51765e-23 0
0.768705 0.074942 0
0.961588 0.0751028 0
0.961677 -6.51765e-23 0
1.15457 3.48112e-23 0
0.961588 0.0751028 0
1.15447 0.0755201 0
1.15457 3.48112e-23 0
1.34693 3.6946e-23 0
1.15447 0.0755201 0
1.34683 0.0763034 0
1.34693 3.6946e-23 0
1.53795 2.43556e-23 0
1.34683 0.0763034 0
1.53789 0.0775401 0
1.53795 2.43556e-23 0
1.72659 -7.37587e-23 0
1.53789 0.0775401 0
1.72661 0.0792574 0
1.72659 -7.37587e-23 0
1.91161 -4.47914e-23 0
1.72661 0.0792574 0
1.91178 0.0813751 0
1.91161 -4.47914e-23 0
2.09184 -7.70641e-23 0
1.91178 0.0813751 0
2.09223 0.0836458 0
2.09184 -7.70641e-23 0
2.26644 -1.8861e-23 0
2.09223 0.0836458 0
2.26712 0.0855757 0
2.26644 -1.8861e-23 0
2.4354 1.08313e-22 0
2.26712 0.0855757 0
2.43638 0.0863154 0
2.4354 1.08313e-22 0
2.60034 5.65892e-23 0
2.43638 0.0863154 0
2.60151 0.0845841 0
2.60034 5.65892e-23 0
2.76548 7.36923e-23 0
2.60151 0.0845841 0
2.76655 0.0789202 0
2.76548 7.36923e-23 0
2.93839 3.593e-23 0
2.76655 0.0789202 0
2.93906 0.0689009 0
2.93839 3.593e-23 0
3.12824 6.1745e-23 0
2.93906 0.0689009 0
3.12844 0.0575583 0
3.12824 6.1745e-23 0
3.33611 2.16145e-23 0
3.12844 0.0575583 0
3.33605 0.0522765 0
3.33611 2.16145e-23 0
3.54278 3.28151e-23 0
3.33605 0.0522765 0
3.54247 0.0588297 0
3.54278 3.28151e-23 0
3.72951 -1.97017e-23 0
3.54247 0.0588297 0
3.72877 0.0715738 0
3.72951 -1.97017e-23 0
3.89755 -4.17808e-23 0
3.72877 0.0715738 0
3.8965 0.0832689 0
3.89755 -4.17808e-23 0
4.05533 -7.44168e-23 0
3.8965 0.0832689 0
4.05433 0.090921 0
4.05533 -7.44168e-23 0
4.20916 6.53839e-23 0
4.05433 0.090921 0
4.20857 0.0948032 0
4.20916 6.53839e-23 0
4.36201 -1.03856e-22 0
4.20857 0.0948032 0
4.36201 0.0959462 0
-4.36201 0.0959462 0
-4.20857 0.0948032 0
-4.36201 0.189615 0
-4.20688 0.187511 0
-4.20857 0.0948032 0
-4.05433 0.090921 0
-4.20688 0.187511 0
-4.05144 0.180331 0
-4.05433 0.090921 0
-3.8965 0.0832689 0
-4.05144 0.180331 0
-3.8934 0.166036 0
-3.8965 0.0832689 0
-3.72877 0.0715738 0
-3.8934 0.166036 0
-3.72659 0.14384 0
-3.72877 0.0715738 0
-3.54247 0.0588297 0
-3.72659 0.14384 0
-3.54163 0.119168 0
-3.54247 0.0588297 0
-3.33605 0.0522765 0
-3.54163 0.119168 0
-3.33588 0.106256 0
-3.33605 0.0522765 0
-3.12844 0.0575583 0
-3.33588 0.106256 0
-3.12896 0.116747 0
-3.12844 0.0575583 0
-2.93906 0.0689009 0
-3.12896 0.116747 0
-2.94102 0.13879 0
-2.93906 0.0689009 0
-2.76655 0.0789202 0
-2.94102 0.13879 0
-2.76968 0.157859 0
-2.76655 0.0789202 0
-2.60151 0.0845841 0
-2.76968 0.157859 0
-2.60484 0.168437 0
-2.60151 0.0845841 0
-2.43638 0.0863154 0
-2.60484 0.168437 0
-2.43915 0.171572 0
-2.43638 0.0863154 0
-2.26712 0.0855757 0
-2.43915 0.171572 0
-2.269 0.170092 0
-2.26712 0.0855757 0
-2.09223 0.0836458 0
-2.269 0.170092 0
-2.09329 0.166404 0
-2.09223 0.0836458 0
-1.91178 0.0813751 0
-2.09329 0.166404 0
-1.91222 0.162091 0
-1.91178 0.0813751 0
-1.72661 0.0792574 0
-1.91222 0.162091 0
-1.72665 0.158077 0
-1.72661 0.0792574 0
-1.53789 0.0775401 0
-1.72665 0.158077 0
-1.53771 0.154827 0
-1.53789 0.0775401 0
-1.34683 0.0763034 0
-1.53771 0.154827 0
-1.34655 0.152491 0
-1.34683 0.0763034 0
-1.15447 0.0755201 0
-1.34655 0.152491 0
-1.15418 0.151015 0
-1.15447 0.0755201 0
-0.961588 0.0751028 0
-1.15418 0.151015 0
-0.961339 0.150232 0
-0.961588 0.0751028 0
-0.768705 0.074942 0
-0.961339 0.150232 0
-0.768512 0.149935 0
-0.768705 0.074942 0
-0.576086 0.0749325 0
-0.768512 0.149935 0
-0.575952 0.149923 0
-0.576086 0.0749325 0
-0.383809 0.0749876 0
-0.575952 0.149923 0
-0.383727 0.150031 0
-0.383809 0.0749876 0
-0.191824 0.075045 0
-0.383727 0.150031 0
-0.191785 0.150142 0
-0.191824 0.075045 0
0 0.0750682 0
-0.191785 0.150142 0
0 0.150186 0
0 0.0750682 0
0.191824 0.075045 0
0 0.150186 0
0.191785 0.150142 0
0.191824 0.075045 0
0.383809 0.0749876 0
0.191785 0.150142 0
0.383727 0.150031 0
0.383809 0.0749876 0
0.576086 0.0749325 0
0.383727 0.150031 0
0.575952 0.149923 0
0.576086 0.0749325 0
0.768705 0.074942 0
0.575952 0.149923 0
0.768512 0.149935 0
0.768705 0.074942 0
0.961588 0.0751028 0
0.768512 0.149935 0
0.961339 0.150232 0
0.961588 0.0751028 0
1.15447 0.0755201 0
0.961339 0.150232 0
1.15418 0.151015 0
1.15447 0.0755201 0
1.34683 0.0763034 0
1.15418 0.151015 0
1.34655 0.152491 0
1.34683 0.0763034 0
1.53789 0.0775401 0
1.34655 0.152491 0
1.53771 0.154827 0
1.53789 0.0775401 0
1.72661 0.0792574 0
1.53771 0.154827 0
1.72665 0.158077 0
1.72661 0.0792574 0
1.91178 0.0813751 0
1.72665 0.158077 0
1.91222 0.162091 0
1.91178 0.0813751 0
2.09223 0.0836458 0
1.91222 0.162091 0
2.09329 0.166404 0
2.09223 0.0836458 0
2.26712 0.0855757 0
2.09329 0.166404 0
2.269 0.170092 0
2.26712 0.0855757 0
2.43638 0.0863154 0
2.269 0.170092 0
2.43915 0.171572 0
2.43638 0.0863154 0
2.60151 0.0845841 0
2.43915 0.171572 0
2.60484 0.168437 0
2.60151 0.0845841 0
2.76655 0.0789202 0
2.60484 0.168437 0
2.76968 0.157859 0
2.76655 0.0789202 0
2.93906 0.0689009 0
2.76968 0.157859 0
2.94102 0.13879 0
2.93906 0.0689009 0
3.12844 0.0575583 0
2.94102 0.13879 0
3.12896 0.116747 0
3.12844 0.0575583 0
3.33605 0.0522765 0
3.12896 0.116747 0
3.33588 0.106256 0
3.33605 0.0522765 0
3.54247 0.0588297 0
3.33588 0.106256 0
3.54163 0.119168 0
3.54247 0.0588297 0
3.72877 0.0715738 0
3.54163 0.119168 0
3.72659 0.14384 0
3.72877 0.0715738 0
3.8965 0.0832689 0
3.72659 0.14384 0
3.8934 0.166036 0
3.8965 0.0832689 0
4.05433 0.090921 0
3.8934 0.166036 0
4.05144 0.180331 0
4.05433 0.090921 0
4.20857 0.0948032 0
4.05144 0.180331 0
4.20688 0.187511 0
4.20857 0.0948032 0
4.36201 0.0959462 0
4.20688 0.187511 0
4.36201 0.189615 0
-4.36201 0.189615 0
-4.20688 0.187511 0
-4.36201 0.281034 0
-4.20417 0.278168 0
-4.20688 0.187511 0
-4.05144 0.180331 0
-4.20417 0.278168 0
-4.04676 0.268325 0
-4.05144 0.180331 0
-3.8934 0.166036 0
-4.04676 0.268325 0
-3.8883 0.248457 0
-3.8934 0.166036 0
-3.72659 0.14384 0
-3.8883 0.248457 0
-3.723 0.216903 0
-3.72659 0.14384 0
-3.54163 0.119168 0
-3.723 0.216903 0
-3.54029 0.180828 0
-3.54163 0.119168 0
-3.33588 0.106256 0
-3.54029 0.180828 0
-3.33563 0.161469 0
-3.33588 0.106256 0
-3.12896 0.116747 0
-3.33563 0.161469 0
-3.12979 0.177394 0
-3.12896 0.116747 0
-2.94102 0.13879 0
-3.12979 0.177394 0
-2.94423 0.20979 0
-2.94102 0.13879 0
-2.76968 0.157859 0
-2.94423 0.20979 0
-2.77475 0.23699 0
-2.76968 0.157859 0
-2.60484 0.168437 0
-2.77475 0.23699 0
-2.61014 0.251667 0
-2.60484 0.168437 0
-2.43915 0.171572 0
-2.61014 0.251667 0
-2.44344 0.255818 0
-2.43915 0.171572 0
-2.269 0.170092 0
-2.44344 0.255818 0
-2.27188 0.253567 0
-2.269 0.170092 0
-2.09329 0.166404 0
-2.27188 0.253567 0
-2.09489 0.248277 0
-2.09329 0.166404 0
-1.91222 0.162091 0
-2.09489 0.248277 0
-1.91287 0.242143 0
-1.91222 0.162091 0
-1.72665 0.158077 0
-1.91287 0.242143 0
-1.72668 0.236451 0
-1.72665 0.158077 0
-1.53771 0.154827 0
-1.72668 0.236451 0
-1.53741 0.231852 0
-1.53771 0.154827 0
-1.34655 0.152491 0
-1.53741 0.231852 0
-1.34612 0.228554 0
-1.34655 0.152491 0
-1.15418 0.151015 0
-1.34612 0.228554 0
-1.15373 0.226479 0
-1.15418 0.151015 0
-0.961339 0.150232 0
-1.15373 0.226479 0
-0.960954 0.225386 0
-0.961339 0.150232 0
-0.768512 0.149935 0
-0.960954 0.225386 0
-0.768216 0.224978 0
-0.768512 0.149935 0
-0.575952 0.149923 0
-0.768216 0.224978 0
-0.575746 0.224971 0
-0.575952 0.149923 0
-0.383727 0.150031 0
-0.575746 0.224971 0
-0.383601 0.225131 0
-0.383727 0.150031 0
-0.191785 0.150142 0
-0.383601 0.225131 0
-0.191726 0.225292 0
-0.191785 0.150142 0
0 0.150186 0
-0.191726 0.225292 0
0 0.225357 0
0 0.150186 0
0.191785 0.150142 0
0 0.225357 0
0.191726 0.225292 0
0.191785 0.150142 0
0.383727 0.150031 0
0.191726 0.225292 0
0.383601 0.225131 0
0.383727 0.150031 0
0.575952 0.149923 0
0.383601 0.225131 0
0.575746 0.224971 0
0.575952 0.149923 0
0.768512 0.149935 0
0.575746 0.224971 0
0.768216 0.224978 0
0.768512 0.149935 0
0.961339 0.150232 0
0.768216 0.224978 0
0.960954 0.225386 0
0.961339 0.150232 0
1.15418 0.151015 0
0.960954 0.225386 0
1.15373 0.226479 0
[...]
POINT_DATA 2688
SCALARS x1_displacement double 1
LOOKUP_TABLE default
1.27006 1.18824 1.27006 1.18883 1.18824 1.1074 1.18883 1.1084 1.1074 1.03051 1.1084 1.03156 1.03051 0.963878 1.03156 0.964618 0.963878 0.915941 0.964618 0.916249 0.915941 0.887944 0.916249 0.888005 0.887944 0.861139 0.888005 0.860943 0.861139 0.816326 0.860943 0.815655 0.816326 0.754573 0.815655 0.753497 0.754573 0.685045 0.753497 0.683874 0.685045 0.615313 0.683874 0.614326 0.615313 0.549605 0.614326 0.548921 0.549605 0.48953 0.548921 0.489138 0.48953 0.435089 0.489138 0.434922 0.435089 0.385442 0.434922 0.385422 0.385442 0.339405 0.385422 0.339467 0.339405 0.295761 0.339467 0.295858 0.295761 0.253451 0.295858 0.253553 0.253451 0.211673 0.253553 0.211762 0.211673 0.169905 0.211762 0.169974 0.169905 0.127874 0.169974 0.127923 0.127874 0.0854999 0.127923 0.0855297 0.0854999 0.0428323 0.0855297 0.0428463 0.0428323 0 0.0428463 0 0 -0.0428323 0 -0.0428463 -0.0428323 -0.0854999 -0.0428463 -0.0855297 -0.0854999 -0.127874 -0.0855297 -0.127923 -0.127874 -0.169905 -0.127923 -0.169974 -0.169905 -0.211673 -0.169974 -0.211762 -0.211673 -0.253451 -0.211762 -0.253553 -0.253451 -0.295761 -0.253553 -0.295858 -0.295761 -0.339405 -0.295858 -0.339467 -0.339405 -0.385442 -0.339467 -0.385422 -0.385442 -0.435089 -0.385422 -0.434922 -0.435089 -0.48953 -0.434922 -0.489138 -0.48953 -0.549605 -0.489138 -0.548921 -0.549605 -0.615313 -0.548921 -0.614326 -0.615313 -0.685045 -0.614326 -0.683874 -0.685045 -0.754573 -0.683874 -0.753497 -0.754573 -0.816326 -0.753497 -0.815655 -0.816326 -0.861139 -0.815655 -0.860943 -0.861139 -0.887944 -0.860943 -0.888005 -0.887944 -0.915941 -0.888005 -0.916249 -0.915941 -0.963878 -0.916249 -0.964618 -0.963878 -1.03051 -0.964618 -1.03156 -1.03051 -1.1074 -1.03156 -1.1084 -1.1074 -1.18824 -1.1084 -1.18883 -1.18824 -1.27006 -1.18883 -1.27006 1.27006 1.18883 1.27006 1.19052 1.18883 1.1084 1.19052 1.11129 1.1084 1.03156 1.11129 1.03466 1.03156 0.964618 1.03466 0.966796 0.964618 0.916249 0.966796 0.917095 0.916249 0.888005 0.917095 0.88817 0.888005 0.860943 0.88817 0.860418 0.860943 0.815655 0.860418 0.813701 0.815655 0.753497 0.813701 0.750373 0.753497 0.683874 0.750373 0.680536 0.683874 0.614326 0.680536 0.611564 0.614326 0.548921 0.611564 0.547037 0.548921 0.489138 0.547037 0.488077 0.489138 0.434922 0.488077 0.43448 0.434922 0.385422 0.43448 0.385383 0.385422 0.339467 0.385383 0.339652 0.339467 0.295858 0.339652 0.296136 0.295858 0.253553 0.296136 0.253839 0.253553 0.211762 0.253839 0.212011 0.211762 0.169974 0.212011 0.170167 0.169974 0.127923 0.170167 0.128057 0.127923 0.0855297 0.128057 0.085612 0.0855297 0.0428463 0.085612 0.0428849 0.0428463 0 0.0428849 0 0 -0.0428463 0 -0.0428849 -0.0428463 -0.0855297 -0.0428849 -0.085612 -0.0855297 -0.127923 -0.085612 -0.128057 -0.127923 -0.169974 -0.128057 -0.170167 -0.169974 -0.211762 -0.170167 -0.212011 -0.211762 -0.253553 -0.212011 -0.253839 -0.253553 -0.295858 -0.253839 -0.296136 -0.295858 -0.339467 -0.296136 -0.339652 -0.339467 -0.385422 -0.339652 -0.385383 -0.385422 -0.434922 -0.385383 -0.43448 -0.434922 -0.489138 -0.43448 -0.488077 -0.489138 -0.548921 -0.488077 -0.547037 -0.548921 -0.614326 -0.547037 -0.611564 -0.614326 -0.683874 -0.611564 -0.680536 -0.683874 -0.753497 -0.680536 -0.750373 -0.753497 -0.815655 -0.750373 -0.813701 -0.815655 -0.860943 -0.813701 -0.860418 -0.860943 -0.888005 -0.860418 -0.88817 -0.888005 -0.916249 -0.88817 -0.917095 -0.916249 -0.964618 -0.917095 -0.966796 -0.964618 -1.03156 -0.966796 -1.03466 -1.03156 -1.1084 -1.03466 -1.11129 -1.1084 -1.18883 -1.11129 -1.19052 -1.18883 -1.27006 -1.19052 -1.27006 1.27006 1.19052 1.27006 1.19323 1.19052 1.11129 1.19323 1.11597 1.11129 1.03466 1.11597 1.03976 1.03466 0.966796 1.03976 0.970389 0.966796 0.917095 0.970389 0.918427 0.917095 0.88817 0.918427 0.888424 0.88817 0.860418 0.888424 0.859594 0.860418 0.813701 0.859594 0.81049 0.813701 0.750373 0.81049 0.745304 0.750373 0.680536 0.745304 0.675239 0.680536 0.611564 0.675239 0.607271 0.611564 0.547037 0.607271 0.544156 0.547037 0.488077 0.544156 0.486477 0.488077 0.43448 0.486477 0.433831 0.43448 0.385383 0.433831 0.385347 0.385383 0.339652 0.385347 0.339953 0.339652 0.296136 0.339953 0.296573 0.296136 0.253839 0.296573 0.254286 0.253839 0.212011 0.254286 0.212396 0.212011 0.170167 0.212396 0.170463 0.170167 0.128057 0.170463 0.128263 0.128057 0.085612 0.128263 0.0857378 0.085612 0.0428849 0.0857378 0.0429437 0.0428849 0 0.0429437 0 0 -0.0428849 0 -0.0429437 -0.0428849 -0.085612 -0.0429437 -0.0857378 -0.085612 -0.128057 -0.0857378 -0.128263 -0.128057 -0.170167 -0.128263 -0.170463 -0.170167 -0.212011 -0.170463 -0.212396 -0.212011 -0.253839 -0.212396 -0.254286 -0.253839 -0.296136 -0.254286 -0.296573 -0.296136 -0.339652 -0.296573 -0.339953 -0.339652 -0.385383 -0.339953 -0.385347 -0.385383 -0.43448 -0.385347 -0.433831 -0.43448 -0.488077 -0.433831 -0.486477 -0.488077 -0.547037 -0.486477 -0.544156 -0.547037 -0.611564 -0.544156 -0.607271 -0.611564 -0.680536 -0.607271 -0.675239 -0.680536 -0.750373 -0.675239 -0.745304 -0.750373 -0.813701 -0.745304 -0.81049 -0.813701 -0.860418 -0.81049 -0.859594 -0.860418 -0.88817 -0.859594 -0.888424 -0.88817 -0.917095 -0.888424 -0.918427 -0.917095 -0.966796 -0.918427 -0.970389 -0.966796 -1.03466 -0.970389 -1.03976 -1.03466 -1.11129 -1.03976 -1.11597 -1.11129 -1.19052 -1.11597 -1.19323 -1.19052 -1.27006 -1.19323 -1.27006 1.27006 1.19323 1.27006 1.19688 1.19323 1.11597 1.19688 1.12241 1.11597 1.03976 1.12241 1.04696 1.03976 0.970389 1.04696 0.975589 0.970389 0.918427 0.975589 0.920322 0.918427 0.888424 0.920322 0.888756 0.888424 0.859594 0.888756 0.858386 0.859594 0.81049 0.858386 0.80585 0.81049 0.745304 0.80585 0.738234 0.745304 0.675239 0.738234 0.668121 0.675239 0.607271 0.668121 0.601681 0.607271 0.544156 0.601681 0.540498 0.544156 0.486477 0.540498 0.484494 0.486477 0.433831 0.484494 0.433066 0.433831 0.385347 0.433066 0.385355 0.385347 0.339953 0.385355 0.340377 0.339953 0.296573 0.340377 0.297161 0.296573 0.254286 0.297161 0.254873 0.254286 0.212396 0.254873 0.212898 0.212396 0.170463 0.212898 0.170845 0.170463 0.128263 0.170845 0.128525 0.128263 0.0857378 0.128525 0.0858973 0.0857378 0.0429437 0.0858973 0.0430178 0.0429437 0 0.0430178 0 0 -0.0429437 0 -0.0430178 -0.0429437 -0.0857378 -0.0430178 -0.0858973 -0.0857378 -0.128263 -0.0858973 -0.128525 -0.128263 -0.170463 -0.128525 -0.170845 -0.170463 -0.212396 -0.170845 -0.212898 -0.212396 -0.254286 -0.212898 -0.254873 -0.254286 -0.296573 -0.254873 -0.297161 -0.296573 -0.339953 -0.297161 -0.340377 -0.339953 -0.385347 -0.340377 -0.385355 -0.385347 -0.433831 -0.385355 -0.433066 -0.433831 -0.486477 -0.433066 -0.484494 -0.486477 -0.544156 -0.484494 -0.540498 -0.544156 -0.607271 -0.540498 -0.601681 -0.607271 -0.675239 -0.601681 -0.668121 -0.675239 -0.745304 -0.668121 -0.738234 -0.745304 -0.81049 -0.738234 -0.80585 -0.81049 -0.859594 -0.80585 -0.858386 -0.859594 -0.888424 -0.858386 -0.888756 -0.888424 -0.918427 -0.888756 -0.920322 -0.918427 -0.970389 -0.920322 -0.975589 -0.970389 -1.03976 -0.975589 -1.04696 -1.03976 -1.11597 -1.04696 -1.12241 -1.11597 -1.19323 -1.12241 -1.19688 -1.19323 -1.27006 -1.19688 -1.27006 1.27006 1.19688 1.27006 1.20141 1.19688 1.12241 1.20141 1.13062 1.12241 1.04696 1.13062 1.05651 1.04696 0.975589 1.05651 0.982802 0.975589 0.920322 0.982802 0.922993 0.920322 0.888756 0.922993 0.889159 0.888756 0.858386 0.889159 0.856586 0.858386 0.80585 0.856586 0.799409 0.80585 0.738234 0.799409 0.728981 0.738234 0.668121 0.728981 0.659291 0.668121 0.601681 0.659291 0.595039 0.601681 0.540498 0.595039 0.536297 0.540498 0.484494 0.536297 0.482301 0.484494 0.433066 0.482301 0.432291 0.433066 0.385355 0.432291 0.385463 0.385355 0.340377 0.385463 0.340947 0.340377 0.297161 0.340947 0.297895 0.297161 0.254873 0.297895 0.255588 0.254873 0.212898 0.255588 0.213496 0.212898 0.170845 0.213496 0.171294 0.170845 0.128525 0.171294 0.12883 0.128525 0.0858973 0.12883 0.08608 0.0858973 0.0430178 0.08608 0.0431021 0.0430178 0 0.0431021 0 0 -0.0430178 0 -0.0431021 -0.0430178 -0.0858973 -0.0431021 -0.08608 -0.0858973 -0.128525 -0.08608 -0.12883 -0.128525 -0.170845 -0.12883 -0.171294 -0.170845 -0.212898 -0.171294 -0.213496 -0.212898 -0.254873 -0.213496 -0.255588 -0.254873 -0.297161 -0.255588 -0.297895 -0.297161 -0.340377 -0.297895 -0.340947 -0.340377 -0.385355 -0.340947 -0.385463 -0.385355 -0.433066 -0.385463 -0.432291 -0.433066 -0.484494 -0.432291 -0.482301 -0.484494 -0.540498 -0.482301 -0.536297 -0.540498 -0.601681 -0.536297 -0.595039 -0.601681 -0.668121 -0.595039 -0.659291 -0.668121 -0.738234 -0.659291 -0.728981 -0.738234 -0.80585 -0.728981 -0.799409 -0.80585 -0.858386 -0.799409 -0.856586 -0.858386 -0.888756 -0.856586 -0.889159 -0.888756 -0.920322 -0.889159 -0.922993 -0.920322 -0.975589 -0.922993 -0.982802 -0.975589 -1.04696 -0.982802 -1.05651 -1.04696 -1.12241 -1.05651 -1.13062 -1.12241 -1.19688 -1.13062 -1.20141 -1.19688 -1.27006 -1.20141 -1.27006 1.27006 1.20141 1.27006 1.20673 1.20141 1.13062 1.20673 1.14058 1.13062 1.05651 1.14058 1.06878 1.05651 0.982802 1.06878 0.992669 0.982802 0.922993 0.992669 0.926819 0.922993 0.889159 0.926819 0.889626 0.889159 0.856586 0.889626 0.853825 0.856586 0.799409 0.853825 0.790562 0.799409 0.728981 0.790562 0.717268 0.728981 0.659291 0.717268 0.648872 0.659291 0.595039 0.648872 0.587617 0.595039 0.536297 0.587617 0.531803 0.536297 0.482301 0.531803 0.48008 0.482301 0.432291 0.48008 0.431626 0.432291 0.385463 0.431626 0.385736 0.385463 0.340947 0.385736 0.341688 0.340947 0.297895 0.341688 0.298779 0.297895 0.255588 0.298779 0.256418 0.255588 0.213496 0.256418 0.214174 0.213496 0.171294 0.214174 0.171792 0.171294 0.12883 0.171792 0.129161 0.12883 0.08608 0.129161 0.086275 0.08608 0.0431021 0.086275 0.0431908 0.0431021 0 0.0431908 0 0 -0.0431021 0 -0.0431908 -0.0431021 -0.08608 -0.0431908 -0.086275 -0.08608 -0.12883 -0.086275 -0.129161 -0.12883 -0.171294 -0.129161 -0.171792 -0.171294 -0.213496 -0.171792 -0.214174 -0.213496 -0.255588 -0.214174 -0.256418 -0.255588 -0.297895 -0.256418 -0.298779 -0.297895 -0.340947 -0.298779 -0.341688 -0.340947 -0.385463 -0.341688 -0.385736 -0.385463 -0.432291 -0.385736 -0.431626 -0.432291 -0.482301 -0.431626 -0.48008 -0.482301 -0.536297 -0.48008 -0.531803 -0.536297 -0.595039 -0.531803 -0.587617 -0.595039 -0.659291 -0.587617 -0.648872 -0.659291 -0.728981 -0.648872 -0.717268 -0.728981 -0.799409 -0.717268 -0.790562 -0.799409 -0.856586 -0.790562 -0.853825 -0.856586 -0.889159 -0.853825 -0.889626 -0.889159 -0.922993 -0.889626 -0.926819 -0.922993 -0.982802 -0.926819 -0.992669 -0.982802 -1.05651 -0.992669 -1.06878 -1.05651 -1.13062 -1.06878 -1.14058 -1.13062 -1.20141 -1.14058 -1.20673 -1.20141 -1.27006 -1.20673 -1.27006 1.27006 1.20673 1.27006 1.21269 1.20673 1.14058 1.21269 1.1522 1.14058 1.06878 1.1522 1.0841 1.06878 0.992669 1.0841 1.00611 0.992669 0.926819 1.00611 0.932438 0.926819 0.889626 0.932438 0.890153 0.889626 0.853825 0.890153 0.849483 0.853825 0.790562 0.849483 0.778426 0.790562 0.717268 0.778426 0.702785 0.717268 0.648872 0.702785 0.637067 0.648872 0.587617 0.637067 0.579728 0.587617 0.531803 0.579728 0.527277 0.531803 0.48008 0.527277 0.478019 0.48008 0.431626 0.478019 0.431192 0.431626 0.385736 0.431192 0.386245 0.385736 0.341688 0.386245 0.342631 0.341688 0.298779 0.342631 0.299817 0.298779 0.256418 0.299817 0.257351 0.256418 0.214174 0.257351 0.214913 0.214174 0.171792 0.214913 0.17232 0.171792 0.129161 0.17232 0.129503 0.129161 0.086275 0.129503 0.086471 0.086275 0.0431908 0.086471 0.0432781 0.0431908 0 0.0432781 0 0 -0.0431908 0 -0.0432781 -0.0431908 -0.086275 -0.0432781 -0.086471 -0.086275 -0.129161 -0.086471 -0.129503 -0.129161 -0.171792 -0.129503 -0.17232 -0.171792 -0.214174 -0.17232 -0.214913 -0.214174 -0.256418 -0.214913 -0.257351 -0.256418 -0.298779 -0.257351 -0.299817 -0.298779 -0.341688 -0.299817 -0.342631 -0.341688 -0.385736 -0.342631 -0.386245 -0.385736 -0.431626 -0.386245 -0.431192 -0.431626 -0.48008 -0.431192 -0.478019 -0.48008 -0.531803 -0.478019 -0.527277 -0.531803 -0.587617 -0.527277 -0.579728 -0.587617 -0.648872 -0.579728 -0.637067 -0.648872 -0.717268 -0.637067 -0.702785 -0.717268 -0.790562 -0.702785 -0.778426 -0.790562 -0.853825 -0.778426 -0.849483 -0.853825 -0.889626 -0.849483 -0.890153 -0.889626 -0.926819 -0.890153 -0.932438 -0.926819 -0.992669 -0.932438 -1.00611 -0.992669 -1.06878 -1.00611 -1.0841 -1.06878 -1.14058 -1.0841 -1.1522 -1.14058 -1.20673 -1.1522 -1.21269 -1.20673 -1.27006 -1.21269 -1.27006 1.27006 1.21269 1.27006 1.21908 1.21269 1.1522 1.21908 1.16519 1.1522 1.0841 1.16519 1.10273 1.0841 1.00611 1.10273 1.02438 1.00611 0.932438 1.02438 0.940906 0.932438 0.890153 0.940906 0.890735 0.890153 0.849483 0.890735 0.842528 0.849483 0.778426 0.842528 0.761767 0.778426 0.702785 0.761767 0.685313 0.702785 0.637067 0.685313 0.624226 0.637067 0.579728 0.624226 0.571733 0.579728 0.527277 0.571733 0.522987 0.527277 0.478019 0.522987 0.47631 0.478019 0.431192 0.47631 0.431115 0.431192 0.386245 0.431115 0.38706 0.386245 0.342631 0.38706 0.343808 0.342631 0.299817 0.343808 0.301013 0.299817 0.257351 0.301013 0.258378 0.257351 0.214913 0.258378 0.215695 0.214913 0.17232 0.215695 0.172858 0.17232 0.129503 0.172858 0.129838 0.129503 0.086471 0.129838 0.0866562 0.086471 0.0432781 0.0866562 0.0433581 0.0432781 0 0.0433581 0 0 -0.0432781 0 -0.0433581 -0.0432781 -0.086471 -0.0433581 -0.0866562 -0.086471 -0.129503 -0.0866562 -0.129838 -0.129503 -0.17232 -0.129838 -0.172858 -0.17232 -0.214913 -0.172858 -0.215695 -0.214913 -0.257351 -0.215695 -0.258378 -0.257351 -0.299817 -0.258378 -0.301013 -0.299817 -0.342631 -0.301013 -0.343808 -0.342631 -0.386245 -0.343808 -0.38706 -0.386245 -0.431192 -0.38706 -0.431115 -0.431192 -0.478019 -0.431115 -0.47631 -0.478019 -0.527277 -0.47631 -0.522987 -0.527277 -0.579728 -0.522987 -0.571733 -0.579728 -0.637067 -0.571733 -0.624226 -0.637067 -0.702785 -0.624226 -0.685313 -0.702785 -0.778426 -0.685313 -0.761767 -0.778426 -0.849483 -0.761767 -0.842528 -0.849483 -0.890153 -0.842528 -0.890735 -0.890153 -0.932438 -0.890735 -0.940906 -0.932438 -1.00611 -0.940906 -1.02438 -1.00611 -1.0841 -1.02438 -1.10273 -1.0841 -1.1522 -1.10273 -1.16519 -1.1522 -1.21269 -1.16519 -1.21908 -1.21269 -1.27006 -1.21908 -1.27006 1.27006 1.21908 1.27006 1.22569 1.21908 1.16519 1.22569 1.17906 1.16519 1.10273 1.17906 1.12456 1.10273 1.02438 1.12456 1.04908 1.02438 0.940906 1.04908 0.954003 0.940906 0.890735 0.954003 0.891366 0.890735 0.842528 0.891366 0.831196 0.842528 0.761767 0.831196 0.738958 0.761767 0.685313 0.738958 0.664963 0.685313 0.624226 0.664963 0.610902 0.624226 0.571733 0.610902 0.564018 0.571733 0.522987 0.564018 0.5192 0.522987 0.47631 0.5192 0.47514 0.47631 0.431115 0.47514 0.431517 0.431115 0.38706 0.431517 0.388251 0.38706 0.343808 0.388251 0.345249 0.343808 0.301013 0.345249 0.302371 0.301013 0.258378 0.302371 0.259483 0.258378 0.215695 0.259483 0.216499 0.215695 0.172858 0.216499 0.173386 0.172858 0.129838 0.173386 0.13015 0.129838 0.0866562 0.13015 0.0868185 0.0866562 0.0433581 0.0868185 0.0434246 0.0433581 0 0.0434246 0 0 -0.0433581 0 -0.0434246 -0.0433581 -0.0866562 -0.0434246 -0.0868185 -0.0866562 -0.129838 -0.0868185 -0.13015 -0.129838 -0.172858 -0.13015 -0.173386 -0.172858 -0.215695 -0.173386 -0.216499 -0.215695 -0.258378 -0.216499 -0.259483 -0.258378 -0.301013 -0.259483 -0.302371 -0.301013 -0.343808 -0.302371 -0.345249 -0.343808 -0.38706 -0.345249 -0.388251 -0.38706 -0.431115 -0.388251 -0.431517 -0.431115 -0.47631 -0.431517 -0.47514 -0.47631 -0.522987 -0.47514 -0.5192 -0.522987 -0.571733 -0.5192 -0.564018 -0.571733 -0.624226 -0.564018 -0.610902 -0.624226 -0.685313 -0.610902 -0.664963 -0.685313 -0.761767 -0.664963 -0.738958 -0.761767 -0.842528 -0.738958 -0.831196 -0.842528 -0.890735 -0.831196 -0.891366 -0.890735 -0.940906 -0.891366 -0.954003 -0.940906 -1.02438 -0.954003 -1.04908 -1.02438 -1.10273 -1.04908 -1.12456 -1.10273 -1.16519 -1.12456 -1.17906 -1.16519 -1.21908 -1.17906 -1.22569 -1.21908 -1.27006 -1.22569 -1.27006 1.27006 1.22569 1.27006 1.2323 1.22569 1.17906 1.2323 1.19317 1.17906 1.12456 1.19317 1.1487 1.12456 1.04908 1.1487 1.082 1.04908 0.954003 1.082 0.974909 0.954003 0.891366 0.974909 0.892043 0.891366 0.831196 0.892043 0.81231 0.831196 0.738958 0.81231 0.708128 0.738958 0.664963 0.708128 0.642577 0.664963 0.610902 0.642577 0.597807 0.610902 0.564018 0.597807 0.556954 0.564018 0.5192 0.556954 0.516182 0.5192 0.47514 0.516182 0.474695 0.47514 0.431517 0.474695 0.432514 0.431517 0.388251 0.432514 0.389882 0.388251 0.345249 0.389882 0.346977 0.345249 0.302371 0.346977 0.303887 0.302371 0.259483 0.303887 0.260651 0.259483 0.216499 0.260651 0.217304 0.216499 0.173386 0.217304 0.173882 0.173386 0.13015 0.173882 0.13042 0.13015 0.0868185 0.13042 0.0869457 0.0868185 0.0434246 0.0869457 0.0434714 0.0434246 0 0.0434714 0 0 -0.0434246 0 -0.0434714 -0.0434246 -0.0868185 -0.0434714 -0.0869457 -0.0868185 -0.13015 -0.0869457 -0.13042 -0.13015 -0.173386 -0.13042 -0.173882 -0.173386 -0.216499 -0.173882 -0.217304 -0.216499 -0.259483 -0.217304 -0.260651 -0.259483 -0.302371 -0.260651 -0.303887 -0.302371 -0.345249 -0.303887 -0.346977 -0.345249 -0.388251 -0.346977 -0.389882 -0.388251 -0.431517 -0.389882 -0.432514 -0.431517 -0.47514 -0.432514 -0.474695 -0.47514 -0.5192 -0.474695 -0.516182 -0.5192 -0.564018 -0.516182 -0.556954 -0.564018 -0.610902 -0.556954 -0.597807 -0.610902 -0.664963 -0.597807 -0.642577 -0.664963 -0.738958 -0.642577 -0.708128 -0.738958 -0.831196 -0.708128 -0.81231 -0.831196 -0.891366 -0.81231 -0.892043 -0.891366 -0.954003 -0.892043 -0.974909 -0.954003 -1.04908 -0.974909 -1.082 -1.04908 -1.12456 -1.082 -1.1487 -1.12456 -1.17906 -1.1487 -1.19317 -1.17906 -1.22569 -1.19317 -1.2323 -1.22569 -1.27006 -1.2323 -1.27006 1.27006 1.2323 1.27006 1.2387 1.2323 1.19317 1.2387 1.20694 1.19317 1.1487 1.20694 1.17318 1.1487 1.082 1.17318 1.12394 1.082 0.974909 1.12394 1.00996 0.974909 0.892043 1.00996 0.892745 0.892043 0.81231 0.892745 0.779453 0.81231 0.708128 0.779453 0.668331 0.708128 0.642577 0.668331 0.620118 0.642577 0.597807 0.620118 0.585576 0.597807 0.556954 0.585576 0.550903 0.556954 0.516182 0.550903 0.514196 0.516182 0.474695 0.514196 0.475148 0.474695 0.432514 0.475148 0.434219 0.432514 0.389882 0.434219 0.392013 0.389882 0.346977 0.392013 0.349013 0.346977 0.303887 0.349013 0.305554 0.303887 0.260651 0.305554 0.26186 0.260651 0.217304 0.26186 0.218083 0.217304 0.173882 0.218083 0.174322 0.173882 0.13042 0.174322 0.130631 0.13042 0.0869457 0.130631 0.0870251 0.0869457 0.0434714 0.0870251 0.0434922 0.0434714 0 0.0434922 0 0 -0.0434714 0 -0.0434922 -0.0434714 -0.0869457 -0.0434922 -0.0870251 -0.0869457 -0.13042 -0.0870251 -0.130631 -0.13042 -0.173882 -0.130631 -0.174322 -0.173882 -0.217304 -0.174322 -0.218083 -0.217304 -0.260651 -0.218083 -0.26186 -0.260651 -0.303887 -0.26186 -0.305554 -0.303887 -0.346977 -0.305554 -0.349013 -0.346977 -0.389882 -0.349013 -0.392013 -0.389882 -0.432514 -0.392013 -0.434219 -0.432514 -0.474695 -0.434219 -0.475148 -0.474695 -0.516182 -0.475148 -0.514196 -0.516182 -0.556954 -0.514196 -0.550903 -0.556954 -0.597807 -0.550903 -0.585576 -0.597807 -0.642577 -0.585576 -0.620118 -0.642577 -0.708128 -0.620118 -0.668331 -0.708128 -0.81231 -0.668331 -0.779453 -0.81231 -0.892043 -0.779453 -0.892745 -0.892043 -0.974909 -0.892745 -1.00996 -0.974909 -1.082 -1.00996 -1.12394 -1.082 -1.1487 -1.12394 -1.17318 -1.1487 -1.19317 -1.17318 -1.20694 -1.19317 -1.2323 -1.20694 -1.2387 -1.2323 -1.27006 -1.2387 -1.27006 1.27006 1.2387 1.27006 1.24463 1.2387 1.20694 1.24463 1.21999 1.20694 1.17318 1.21999 1.19598 1.17318 1.12394 1.19598 1.16972 1.12394 1.00996 1.16972 1.07358 1.00996 0.892745 1.07358 0.893384 0.892745 0.779453 0.893384 0.717757 0.779453 0.668331 0.717757 0.624636 0.668331 0.620118 0.624636 0.599596 0.620118 0.585576 0.599596 0.574654 0.585576 0.550903 0.574654 0.546241 0.550903 0.514196 0.546241 0.513487 0.514196 0.475148 0.513487 0.476663 0.475148 0.434219 0.476663 0.436733 0.434219 0.392013 0.436733 0.394693 0.392013 0.349013 0.394693 0.351366 0.349013 0.305554 0.351366 0.307357 0.305554 0.2