# vtk DataFile Version 3.0
#This file was generated by the deal.II library on 2017/9/27 at 13:18:43
ASCII
DATASET UNSTRUCTURED_GRID

POINTS 2688 double
-4.3526 -8.9679e-23 0
-4.19609 0 0
-4.3526 0.0932256 0
-4.19562 0.0922195 0
-4.19609 0 0
-4.0385 0 0
-4.19562 0.0922195 0
-4.0377 0.0888098 0
-4.0385 0 0
-3.87699 0 0
-4.0377 0.0888098 0
-3.87617 0.0821218 0
-3.87699 0 0
-3.70593 0 0
-3.87617 0.0821218 0
-3.70536 0.0719748 0
-3.70593 0 0
-3.51832 0 0
-3.70536 0.0719748 0
-3.51809 0.0610088 0
-3.51832 0 0
-3.31392 0 0
-3.51809 0.0610088 0
-3.31386 0.0554324 0
-3.31392 0 0
-3.10864 0 0
-3.31386 0.0554324 0
-3.10876 0.0599452 0
-3.10864 0 0
-2.91864 0 0
-3.10876 0.0599452 0
-2.91913 0.0697273 0
-2.91864 0 0
-2.74368 0 0
-2.91913 0.0697273 0
-2.74451 0.0784425 0
-2.74368 0 0
-2.57615 0 0
-2.74451 0.0784425 0
-2.57708 0.0834143 0
-2.57615 0 0
-2.40933 0 0
-2.57708 0.0834143 0
-2.41012 0.0849541 0
-2.40933 0 0
-2.23935 0 0
-2.41012 0.0849541 0
-2.2399 0.0843178 0
-2.23935 0 0
-2.06467 0 0
-2.2399 0.0843178 0
-2.06498 0.0826317 0
-2.06467 0 0
-1.88522 0 0
-2.06498 0.0826317 0
-1.88534 0.0806502 0
-1.88522 0 0
-1.7017 0 0
-1.88534 0.0806502 0
-1.70171 0.0788121 0
-1.7017 0 0
-1.51515 0 0
-1.70171 0.0788121 0
-1.51509 0.0773347 0
-1.51515 0 0
-1.32661 0 0
-1.51509 0.0773347 0
-1.32652 0.0762856 0
-1.32661 0 0
-1.13699 0 0
-1.32652 0.0762856 0
-1.1369 0.0756367 0
-1.13699 0 0
-0.946988 0 0
-1.1369 0.0756367 0
-0.946911 0.0753077 0
-0.946988 0 0
-0.757032 0 0
-0.946911 0.0753077 0
-0.756973 0.0751998 0
-0.757032 0 0
-0.567349 0 0
-0.756973 0.0751998 0
-0.567309 0.0752187 0
-0.567349 0 0
-0.377998 0 0
-0.567309 0.0752187 0
-0.377973 0.0752871 0
-0.377998 0 0
-0.188923 0 0
-0.377973 0.0752871 0
-0.188911 0.0753497 0
-0.188923 0 0
0 0 0
-0.188911 0.0753497 0
0 0.0753741 0
0 0 0
0.188923 7.37137e-24 0
0 0.0753741 0
0.188911 0.0753497 0
0.188923 7.37137e-24 0
0.377998 2.34835e-23 0
0.188911 0.0753497 0
0.377973 0.0752871 0
0.377998 2.34835e-23 0
0.567349 -4.69554e-23 0
0.377973 0.0752871 0
0.567309 0.0752187 0
0.567349 -4.69554e-23 0
0.757032 -2.08396e-23 0
0.567309 0.0752187 0
0.756973 0.0751998 0
0.757032 -2.08396e-23 0
0.946988 -5.56337e-23 0
0.756973 0.0751998 0
0.946911 0.0753077 0
0.946988 -5.56337e-23 0
1.13699 2.68127e-23 0
0.946911 0.0753077 0
1.1369 0.0756367 0
1.13699 2.68127e-23 0
1.32661 3.06568e-23 0
1.1369 0.0756367 0
1.32652 0.0762856 0
1.32661 3.06568e-23 0
1.51515 1.73965e-23 0
1.32652 0.0762856 0
1.51509 0.0773347 0
1.51515 1.73965e-23 0
1.7017 -6.29036e-23 0
1.51509 0.0773347 0
1.70171 0.0788121 0
1.7017 -6.29036e-23 0
1.88522 -3.47474e-23 0
1.70171 0.0788121 0
1.88534 0.0806502 0
1.88522 -3.47474e-23 0
2.06467 -6.45909e-23 0
1.88534 0.0806502 0
2.06498 0.0826317 0
2.06467 -6.45909e-23 0
2.23935 -1.67402e-23 0
2.06498 0.0826317 0
2.2399 0.0843178 0
2.23935 -1.67402e-23 0
2.40933 9.01479e-23 0
2.2399 0.0843178 0
2.41012 0.0849541 0
2.40933 9.01479e-23 0
2.57615 5.06572e-23 0
2.41012 0.0849541 0
2.57708 0.0834143 0
2.57615 5.06572e-23 0
2.74368 5.68989e-23 0
2.57708 0.0834143 0
2.74451 0.0784425 0
2.74368 5.68989e-23 0
2.91864 2.73422e-23 0
2.74451 0.0784425 0
2.91913 0.0697273 0
2.91864 2.73422e-23 0
3.10864 4.87164e-23 0
2.91913 0.0697273 0
3.10876 0.0599452 0
3.10864 4.87164e-23 0
3.31392 1.87081e-23 0
3.10876 0.0599452 0
3.31386 0.0554324 0
3.31392 1.87081e-23 0
3.51832 2.83967e-23 0
3.31386 0.0554324 0
3.51809 0.0610088 0
3.51832 2.83967e-23 0
3.70593 -1.46274e-23 0
3.51809 0.0610088 0
3.70536 0.0719748 0
3.70593 -1.46274e-23 0
3.87699 -3.69316e-23 0
3.70536 0.0719748 0
3.87617 0.0821218 0
3.87699 -3.69316e-23 0
4.0385 -6.4808e-23 0
3.87617 0.0821218 0
4.0377 0.0888098 0
4.0385 -6.4808e-23 0
4.19609 5.50088e-23 0
4.0377 0.0888098 0
4.19562 0.0922195 0
4.19609 5.50088e-23 0
4.3526 -8.9679e-23 0
4.19562 0.0922195 0
4.3526 0.0932256 0
-4.3526 0.0932256 0
-4.19562 0.0922195 0
-4.3526 0.184531 0
-4.19425 0.182678 0
-4.19562 0.0922195 0
-4.0377 0.0888098 0
-4.19425 0.182678 0
-4.03538 0.176367 0
-4.0377 0.0888098 0
-3.87617 0.0821218 0
-4.03538 0.176367 0
-3.87372 0.163857 0
-3.87617 0.0821218 0
-3.70536 0.0719748 0
-3.87372 0.163857 0
-3.70369 0.144575 0
-3.70536 0.0719748 0
-3.51809 0.0610088 0
-3.70369 0.144575 0
-3.51746 0.123339 0
-3.51809 0.0610088 0
-3.31386 0.0554324 0
-3.51746 0.123339 0
-3.3137 0.112363 0
-3.31386 0.0554324 0
-3.10876 0.0599452 0
-3.3137 0.112363 0
-3.10907 0.121318 0
-3.10876 0.0599452 0
-2.91913 0.0697273 0
-3.10907 0.121318 0
-2.92057 0.140331 0
-2.91913 0.0697273 0
-2.74451 0.0784425 0
-2.92057 0.140331 0
-2.74693 0.156936 0
-2.74451 0.0784425 0
-2.57708 0.0834143 0
-2.74693 0.156936 0
-2.57971 0.166232 0
-2.57708 0.0834143 0
-2.41012 0.0849541 0
-2.57971 0.166232 0
-2.41232 0.169019 0
-2.41012 0.0849541 0
-2.2399 0.0843178 0
-2.41232 0.169019 0
-2.2414 0.16774 0
-2.2399 0.0843178 0
-2.06498 0.0826317 0
-2.2414 0.16774 0
-2.06581 0.164513 0
-2.06498 0.0826317 0
-1.88534 0.0806502 0
-2.06581 0.164513 0
-1.88567 0.160747 0
-1.88534 0.0806502 0
-1.70171 0.0788121 0
-1.88567 0.160747 0
-1.70171 0.157263 0
-1.70171 0.0788121 0
-1.51509 0.0773347 0
-1.70171 0.157263 0
-1.51491 0.154467 0
-1.51509 0.0773347 0
-1.32652 0.0762856 0
-1.51491 0.154467 0
-1.32627 0.152485 0
-1.32652 0.0762856 0
-1.1369 0.0756367 0
-1.32627 0.152485 0
-1.13665 0.151264 0
-1.1369 0.0756367 0
-0.946911 0.0753077 0
-1.13665 0.151264 0
-0.946697 0.150648 0
-0.946911 0.0753077 0
-0.756973 0.0751998 0
-0.946697 0.150648 0
-0.756809 0.15045 0
-0.756973 0.0751998 0
-0.567309 0.0752187 0
-0.756809 0.15045 0
-0.567196 0.150491 0
-0.567309 0.0752187 0
-0.377973 0.0752871 0
-0.567196 0.150491 0
-0.377905 0.150623 0
-0.377973 0.0752871 0
-0.188911 0.0753497 0
-0.377905 0.150623 0
-0.18888 0.150744 0
-0.188911 0.0753497 0
0 0.0753741 0
-0.18888 0.150744 0
0 0.150791 0
0 0.0753741 0
0.188911 0.0753497 0
0 0.150791 0
0.18888 0.150744 0
0.188911 0.0753497 0
0.377973 0.0752871 0
0.18888 0.150744 0
0.377905 0.150623 0
0.377973 0.0752871 0
0.567309 0.0752187 0
0.377905 0.150623 0
0.567196 0.150491 0
0.567309 0.0752187 0
0.756973 0.0751998 0
0.567196 0.150491 0
0.756809 0.15045 0
0.756973 0.0751998 0
0.946911 0.0753077 0
0.756809 0.15045 0
0.946697 0.150648 0
0.946911 0.0753077 0
1.1369 0.0756367 0
0.946697 0.150648 0
1.13665 0.151264 0
1.1369 0.0756367 0
1.32652 0.0762856 0
1.13665 0.151264 0
1.32627 0.152485 0
1.32652 0.0762856 0
1.51509 0.0773347 0
1.32627 0.152485 0
1.51491 0.154467 0
1.51509 0.0773347 0
1.70171 0.0788121 0
1.51491 0.154467 0
1.70171 0.157263 0
1.70171 0.0788121 0
1.88534 0.0806502 0
1.70171 0.157263 0
1.88567 0.160747 0
1.88534 0.0806502 0
2.06498 0.0826317 0
1.88567 0.160747 0
2.06581 0.164513 0
2.06498 0.0826317 0
2.2399 0.0843178 0
2.06581 0.164513 0
2.2414 0.16774 0
2.2399 0.0843178 0
2.41012 0.0849541 0
2.2414 0.16774 0
2.41232 0.169019 0
2.41012 0.0849541 0
2.57708 0.0834143 0
2.41232 0.169019 0
2.57971 0.166232 0
2.57708 0.0834143 0
2.74451 0.0784425 0
2.57971 0.166232 0
2.74693 0.156936 0
2.74451 0.0784425 0
2.91913 0.0697273 0
2.74693 0.156936 0
2.92057 0.140331 0
2.91913 0.0697273 0
3.10876 0.0599452 0
2.92057 0.140331 0
3.10907 0.121318 0
3.10876 0.0599452 0
3.31386 0.0554324 0
3.10907 0.121318 0
3.3137 0.112363 0
3.31386 0.0554324 0
3.51809 0.0610088 0
3.3137 0.112363 0
3.51746 0.123339 0
3.51809 0.0610088 0
3.70536 0.0719748 0
3.51746 0.123339 0
3.70369 0.144575 0
3.70536 0.0719748 0
3.87617 0.0821218 0
3.70369 0.144575 0
3.87372 0.163857 0
3.87617 0.0821218 0
4.0377 0.0888098 0
3.87372 0.163857 0
4.03538 0.176367 0
4.0377 0.0888098 0
4.19562 0.0922195 0
4.03538 0.176367 0
4.19425 0.182678 0
4.19562 0.0922195 0
4.3526 0.0932256 0
4.19425 0.182678 0
4.3526 0.184531 0
-4.3526 0.184531 0
-4.19425 0.182678 0
-4.3526 0.273953 0
-4.19206 0.271431 0
-4.19425 0.182678 0
-4.03538 0.176367 0
-4.19206 0.271431 0
-4.03163 0.262775 0
-4.03538 0.176367 0
-3.87372 0.163857 0
-4.03163 0.262775 0
-3.8697 0.245361 0
-3.87372 0.163857 0
-3.70369 0.144575 0
-3.8697 0.245361 0
-3.70094 0.217899 0
-3.70369 0.144575 0
-3.51746 0.123339 0
-3.70094 0.217899 0
-3.51648 0.18681 0
-3.51746 0.123339 0
-3.3137 0.112363 0
-3.51648 0.18681 0
-3.31345 0.170354 0
-3.3137 0.112363 0
-3.10907 0.121318 0
-3.31345 0.170354 0
-3.10956 0.183951 0
-3.10907 0.121318 0
-2.92057 0.140331 0
-3.10956 0.183951 0
-2.92293 0.211924 0
-2.92057 0.140331 0
-2.74693 0.156936 0
-2.92293 0.211924 0
-2.75085 0.235649 0
-2.74693 0.156936 0
-2.57971 0.166232 0
-2.75085 0.235649 0
-2.5839 0.248563 0
-2.57971 0.166232 0
-2.41232 0.169019 0
-2.5839 0.248563 0
-2.41575 0.252249 0
-2.41232 0.169019 0
-2.2414 0.16774 0
-2.41575 0.252249 0
-2.2437 0.250287 0
-2.2414 0.16774 0
-2.06581 0.164513 0
-2.2437 0.250287 0
-2.06707 0.245649 0
-2.06581 0.164513 0
-1.88567 0.160747 0
-2.06707 0.245649 0
-1.88615 0.240288 0
-1.88567 0.160747 0
-1.70171 0.157263 0
-1.88615 0.240288 0
-1.70168 0.235345 0
-1.70171 0.157263 0
-1.51491 0.154467 0
-1.70168 0.235345 0
-1.51461 0.231388 0
-1.51491 0.154467 0
-1.32627 0.152485 0
-1.51461 0.231388 0
-1.32587 0.228592 0
-1.32627 0.152485 0
-1.13665 0.151264 0
-1.32587 0.228592 0
-1.13626 0.226876 0
-1.13665 0.151264 0
-0.946697 0.150648 0
-1.13626 0.226876 0
-0.946364 0.226018 0
-0.946697 0.150648 0
-0.756809 0.15045 0
-0.946364 0.226018 0
-0.756557 0.22575 0
-0.756809 0.15045 0
-0.567196 0.150491 0
-0.756557 0.22575 0
-0.567024 0.225816 0
-0.567196 0.150491 0
-0.377905 0.150623 0
-0.567024 0.225816 0
-0.377801 0.226011 0
-0.377905 0.150623 0
-0.18888 0.150744 0
-0.377801 0.226011 0
-0.188832 0.226185 0
-0.18888 0.150744 0
0 0.150791 0
-0.188832 0.226185 0
0 0.226252 0
0 0.150791 0
0.18888 0.150744 0
0 0.226252 0
0.188832 0.226185 0
0.18888 0.150744 0
0.377905 0.150623 0
0.188832 0.226185 0
0.377801 0.226011 0
0.377905 0.150623 0
0.567196 0.150491 0
0.377801 0.226011 0
0.567024 0.225816 0
0.567196 0.150491 0
0.756809 0.15045 0
0.567024 0.225816 0
0.756557 0.22575 0
0.756809 0.15045 0
0.946697 0.150648 0
0.756557 0.22575 0
0.946364 0.226018 0
0.946697 0.150648 0
1.13665 0.151264 0
0.946364 0.226018 0
1.13626 0.226876 0
[...]
POINT_DATA 2688
SCALARS x1_displacement double 1
LOOKUP_TABLE default
1.27947 1.20131 1.27947 1.20178 1.20131 1.12423 1.20178 1.12503 1.12423 1.05107 1.12503 1.05189 1.05107 0.987461 1.05189 0.988028 0.987461 0.940402 0.988028 0.940631 0.940402 0.910131 0.940631 0.910189 0.910131 0.880742 0.910189 0.880624 0.880742 0.836082 0.880624 0.83559 0.836082 0.776365 0.83559 0.775536 0.776365 0.709227 0.775536 0.708304 0.709227 0.641376 0.708304 0.640589 0.641376 0.576688 0.640589 0.576143 0.576688 0.516702 0.576143 0.516394 0.516702 0.461484 0.516394 0.461359 0.461484 0.410328 0.461359 0.410323 0.410328 0.362211 0.410323 0.362272 0.362211 0.316082 0.362272 0.316169 0.316082 0.271027 0.316169 0.271116 0.271027 0.226362 0.271116 0.226439 0.226362 0.181647 0.226439 0.181706 0.181647 0.13666 0.181706 0.1367 0.13666 0.0913411 0.1367 0.0913658 0.0913411 0.0457472 0.0913658 0.0457587 0.0457472 0 0.0457587 0 0 -0.0457472 0 -0.0457587 -0.0457472 -0.0913411 -0.0457587 -0.0913658 -0.0913411 -0.13666 -0.0913658 -0.1367 -0.13666 -0.181647 -0.1367 -0.181706 -0.181647 -0.226362 -0.181706 -0.226439 -0.226362 -0.271027 -0.226439 -0.271116 -0.271027 -0.316082 -0.271116 -0.316169 -0.316082 -0.362211 -0.316169 -0.362272 -0.362211 -0.410328 -0.362272 -0.410323 -0.410328 -0.461484 -0.410323 -0.461359 -0.461484 -0.516702 -0.461359 -0.516394 -0.516702 -0.576688 -0.516394 -0.576143 -0.576688 -0.641376 -0.576143 -0.640589 -0.641376 -0.709227 -0.640589 -0.708304 -0.709227 -0.776365 -0.708304 -0.775536 -0.776365 -0.836082 -0.775536 -0.83559 -0.836082 -0.880742 -0.83559 -0.880624 -0.880742 -0.910131 -0.880624 -0.910189 -0.910131 -0.940402 -0.910189 -0.940631 -0.940402 -0.987461 -0.940631 -0.988028 -0.987461 -1.05107 -0.988028 -1.05189 -1.05107 -1.12423 -1.05189 -1.12503 -1.12423 -1.20131 -1.12503 -1.20178 -1.20131 -1.27947 -1.20178 -1.27947 1.27947 1.20178 1.27947 1.20315 1.20178 1.12503 1.20315 1.12735 1.12503 1.05189 1.12735 1.05434 1.05189 0.988028 1.05434 0.989701 0.988028 0.940631 0.989701 0.94126 0.940631 0.910189 0.94126 0.910351 0.910189 0.880624 0.910351 0.880307 0.880624 0.83559 0.880307 0.834152 0.83559 0.775536 0.834152 0.773122 0.775536 0.708304 0.773122 0.705667 0.708304 0.640589 0.705667 0.638386 0.640589 0.576143 0.638386 0.57464 0.576143 0.516394 0.57464 0.51556 0.516394 0.461359 0.51556 0.461032 0.461359 0.410323 0.461032 0.410324 0.410323 0.362272 0.410324 0.362453 0.362272 0.316169 0.362453 0.31642 0.316169 0.271116 0.31642 0.271367 0.271116 0.226439 0.271367 0.226653 0.226439 0.181706 0.226653 0.18187 0.181706 0.1367 0.18187 0.136813 0.1367 0.0913658 0.136813 0.0914339 0.0913658 0.0457587 0.0914339 0.0457903 0.0457587 0 0.0457903 0 0 -0.0457587 0 -0.0457903 -0.0457587 -0.0913658 -0.0457903 -0.0914339 -0.0913658 -0.1367 -0.0914339 -0.136813 -0.1367 -0.181706 -0.136813 -0.18187 -0.181706 -0.226439 -0.18187 -0.226653 -0.226439 -0.271116 -0.226653 -0.271367 -0.271116 -0.316169 -0.271367 -0.31642 -0.316169 -0.362272 -0.31642 -0.362453 -0.362272 -0.410323 -0.362453 -0.410324 -0.410323 -0.461359 -0.410324 -0.461032 -0.461359 -0.516394 -0.461032 -0.51556 -0.516394 -0.576143 -0.51556 -0.57464 -0.576143 -0.640589 -0.57464 -0.638386 -0.640589 -0.708304 -0.638386 -0.705667 -0.708304 -0.775536 -0.705667 -0.773122 -0.775536 -0.83559 -0.773122 -0.834152 -0.83559 -0.880624 -0.834152 -0.880307 -0.880624 -0.910189 -0.880307 -0.910351 -0.910189 -0.940631 -0.910351 -0.94126 -0.940631 -0.988028 -0.94126 -0.989701 -0.988028 -1.05189 -0.989701 -1.05434 -1.05189 -1.12503 -1.05434 -1.12735 -1.12503 -1.20178 -1.12735 -1.20315 -1.20178 -1.27947 -1.20315 -1.27947 1.27947 1.20315 1.27947 1.20534 1.20315 1.12735 1.20534 1.1311 1.12735 1.05434 1.1311 1.05836 1.05434 0.989701 1.05836 0.992455 0.989701 0.94126 0.992455 0.942243 0.94126 0.910351 0.942243 0.910599 0.910351 0.880307 0.910599 0.879818 0.880307 0.834152 0.879818 0.831786 0.834152 0.773122 0.831786 0.769199 0.773122 0.705667 0.769199 0.701477 0.705667 0.638386 0.701477 0.634957 0.638386 0.57464 0.634957 0.572341 0.57464 0.51556 0.572341 0.514303 0.51556 0.461032 0.514303 0.460554 0.461032 0.410324 0.460554 0.410347 0.410324 0.362453 0.410347 0.362745 0.362453 0.31642 0.362745 0.316816 0.31642 0.271367 0.316816 0.27176 0.271367 0.226653 0.27176 0.226986 0.226653 0.18187 0.226986 0.182122 0.18187 0.136813 0.182122 0.136985 0.136813 0.0914339 0.136985 0.0915379 0.0914339 0.0457903 0.0915379 0.0458384 0.0457903 0 0.0458384 0 0 -0.0457903 0 -0.0458384 -0.0457903 -0.0914339 -0.0458384 -0.0915379 -0.0914339 -0.136813 -0.0915379 -0.136985 -0.136813 -0.18187 -0.136985 -0.182122 -0.18187 -0.226653 -0.182122 -0.226986 -0.226653 -0.271367 -0.226986 -0.27176 -0.271367 -0.31642 -0.27176 -0.316816 -0.31642 -0.362453 -0.316816 -0.362745 -0.362453 -0.410324 -0.362745 -0.410347 -0.410324 -0.461032 -0.410347 -0.460554 -0.461032 -0.51556 -0.460554 -0.514303 -0.51556 -0.57464 -0.514303 -0.572341 -0.57464 -0.638386 -0.572341 -0.634957 -0.638386 -0.705667 -0.634957 -0.701477 -0.705667 -0.773122 -0.701477 -0.769199 -0.773122 -0.834152 -0.769199 -0.831786 -0.834152 -0.880307 -0.831786 -0.879818 -0.880307 -0.910351 -0.879818 -0.910599 -0.910351 -0.94126 -0.910599 -0.942243 -0.94126 -0.989701 -0.942243 -0.992455 -0.989701 -1.05434 -0.992455 -1.05836 -1.05434 -1.12735 -1.05836 -1.1311 -1.12735 -1.20315 -1.1311 -1.20534 -1.20315 -1.27947 -1.20534 -1.27947 1.27947 1.20534 1.27947 1.20831 1.20534 1.1311 1.20831 1.13627 1.1311 1.05836 1.13627 1.06404 1.05836 0.992455 1.06404 0.996438 0.992455 0.942243 0.996438 0.943631 0.942243 0.910599 0.943631 0.910924 0.910599 0.879818 0.910924 0.879092 0.879818 0.831786 0.879092 0.828355 0.831786 0.769199 0.828355 0.763714 0.769199 0.701477 0.763714 0.695832 0.701477 0.634957 0.695832 0.630483 0.634957 0.572341 0.630483 0.56942 0.572341 0.514303 0.56942 0.512751 0.514303 0.460554 0.512751 0.46 0.460554 0.410347 0.46 0.410423 0.410347 0.362745 0.410423 0.363155 0.362745 0.316816 0.363155 0.317346 0.316816 0.27176 0.317346 0.272276 0.27176 0.226986 0.272276 0.227419 0.226986 0.182122 0.227419 0.182446 0.182122 0.136985 0.182446 0.137205 0.136985 0.0915379 0.137205 0.0916693 0.0915379 0.0458384 0.0916693 0.0458988 0.0458384 0 0.0458988 0 0 -0.0458384 0 -0.0458988 -0.0458384 -0.0915379 -0.0458988 -0.0916693 -0.0915379 -0.136985 -0.0916693 -0.137205 -0.136985 -0.182122 -0.137205 -0.182446 -0.182122 -0.226986 -0.182446 -0.227419 -0.226986 -0.27176 -0.227419 -0.272276 -0.27176 -0.316816 -0.272276 -0.317346 -0.316816 -0.362745 -0.317346 -0.363155 -0.362745 -0.410347 -0.363155 -0.410423 -0.410347 -0.460554 -0.410423 -0.46 -0.460554 -0.514303 -0.46 -0.512751 -0.514303 -0.572341 -0.512751 -0.56942 -0.572341 -0.634957 -0.56942 -0.630483 -0.634957 -0.701477 -0.630483 -0.695832 -0.701477 -0.769199 -0.695832 -0.763714 -0.769199 -0.831786 -0.763714 -0.828355 -0.831786 -0.879818 -0.828355 -0.879092 -0.879818 -0.910599 -0.879092 -0.910924 -0.910599 -0.942243 -0.910924 -0.943631 -0.942243 -0.992455 -0.943631 -0.996438 -0.992455 -1.05836 -0.996438 -1.06404 -1.05836 -1.1311 -1.06404 -1.13627 -1.1311 -1.20534 -1.13627 -1.20831 -1.20534 -1.27947 -1.20831 -1.27947 1.27947 1.20831 1.27947 1.212 1.20831 1.13627 1.212 1.14289 1.13627 1.06404 1.14289 1.0716 1.06404 0.996438 1.0716 1.00197 0.996438 0.943631 1.00197 0.945581 0.943631 0.910924 0.945581 0.911317 0.910924 0.879092 0.911317 0.877968 0.879092 0.828355 0.877968 0.82356 0.828355 0.763714 0.82356 0.756504 0.763714 0.695832 0.756504 0.688803 0.695832 0.630483 0.688803 0.625153 0.630483 0.56942 0.625153 0.566065 0.56942 0.512751 0.566065 0.511042 0.512751 0.46 0.511042 0.459457 0.46 0.410423 0.459457 0.410599 0.410423 0.363155 0.410599 0.363697 0.363155 0.317346 0.363697 0.318006 0.317346 0.272276 0.318006 0.272903 0.272276 0.227419 0.272903 0.227934 0.227419 0.182446 0.227934 0.182826 0.182446 0.137205 0.182826 0.137458 0.137205 0.0916693 0.137458 0.091819 0.0916693 0.0458988 0.091819 0.045967 0.0458988 0 0.045967 0 0 -0.0458988 0 -0.045967 -0.0458988 -0.0916693 -0.045967 -0.091819 -0.0916693 -0.137205 -0.091819 -0.137458 -0.137205 -0.182446 -0.137458 -0.182826 -0.182446 -0.227419 -0.182826 -0.227934 -0.227419 -0.272276 -0.227934 -0.272903 -0.272276 -0.317346 -0.272903 -0.318006 -0.317346 -0.363155 -0.318006 -0.363697 -0.363155 -0.410423 -0.363697 -0.410599 -0.410423 -0.46 -0.410599 -0.459457 -0.46 -0.512751 -0.459457 -0.511042 -0.512751 -0.56942 -0.511042 -0.566065 -0.56942 -0.630483 -0.566065 -0.625153 -0.630483 -0.695832 -0.625153 -0.688803 -0.695832 -0.763714 -0.688803 -0.756504 -0.763714 -0.828355 -0.756504 -0.82356 -0.828355 -0.879092 -0.82356 -0.877968 -0.879092 -0.910924 -0.877968 -0.911317 -0.910924 -0.943631 -0.911317 -0.945581 -0.943631 -0.996438 -0.945581 -1.00197 -0.996438 -1.06404 -1.00197 -1.0716 -1.06404 -1.13627 -1.0716 -1.14289 -1.13627 -1.20831 -1.14289 -1.212 -1.20831 -1.27947 -1.212 -1.27947 1.27947 1.212 1.27947 1.21635 1.212 1.14289 1.21635 1.15097 1.14289 1.0716 1.15097 1.08135 1.0716 1.00197 1.08135 1.00957 1.00197 0.945581 1.00957 0.948379 0.945581 0.911317 0.948379 0.911769 0.911317 0.877968 0.911769 0.876164 0.877968 0.82356 0.876164 0.816913 0.82356 0.756504 0.816913 0.74732 0.756504 0.688803 0.74732 0.680466 0.688803 0.625153 0.680466 0.619182 0.625153 0.566065 0.619182 0.562481 0.566065 0.511042 0.562481 0.509328 0.511042 0.459457 0.509328 0.459021 0.459457 0.410599 0.459021 0.410927 0.410599 0.363697 0.410927 0.364392 0.363697 0.318006 0.364392 0.318799 0.318006 0.272903 0.318799 0.273629 0.272903 0.227934 0.273629 0.228516 0.227934 0.182826 0.228516 0.183246 0.182826 0.137458 0.183246 0.137732 0.137458 0.091819 0.137732 0.0919772 0.091819 0.045967 0.0919772 0.0460378 0.045967 0 0.0460378 0 0 -0.045967 0 -0.0460378 -0.045967 -0.091819 -0.0460378 -0.0919772 -0.091819 -0.137458 -0.0919772 -0.137732 -0.137458 -0.182826 -0.137732 -0.183246 -0.182826 -0.227934 -0.183246 -0.228516 -0.227934 -0.272903 -0.228516 -0.273629 -0.272903 -0.318006 -0.273629 -0.318799 -0.318006 -0.363697 -0.318799 -0.364392 -0.363697 -0.410599 -0.364392 -0.410927 -0.410599 -0.459457 -0.410927 -0.459021 -0.459457 -0.511042 -0.459021 -0.509328 -0.511042 -0.566065 -0.509328 -0.562481 -0.566065 -0.625153 -0.562481 -0.619182 -0.625153 -0.688803 -0.619182 -0.680466 -0.688803 -0.756504 -0.680466 -0.74732 -0.756504 -0.82356 -0.74732 -0.816913 -0.82356 -0.877968 -0.816913 -0.876164 -0.877968 -0.911317 -0.876164 -0.911769 -0.911317 -0.945581 -0.911769 -0.948379 -0.945581 -1.00197 -0.948379 -1.00957 -1.00197 -1.0716 -1.00957 -1.08135 -1.0716 -1.14289 -1.08135 -1.15097 -1.14289 -1.212 -1.15097 -1.21635 -1.212 -1.27947 -1.21635 -1.27947 1.27947 1.21635 1.27947 1.22126 1.21635 1.15097 1.22126 1.16045 1.15097 1.08135 1.16045 1.09362 1.08135 1.00957 1.09362 1.01997 1.00957 0.948379 1.01997 0.952509 0.948379 0.911769 0.952509 0.912274 0.911769 0.876164 0.912274 0.873204 0.876164 0.816913 0.873204 0.807699 0.816913 0.74732 0.807699 0.735875 0.74732 0.680466 0.735875 0.670961 0.680466 0.619182 0.670961 0.612819 0.619182 0.562481 0.612819 0.558883 0.562481 0.509328 0.558883 0.507766 0.509328 0.459021 0.507766 0.458797 0.459021 0.410927 0.458797 0.411465 0.410927 0.364392 0.411465 0.365267 0.364392 0.318799 0.365267 0.319725 0.318799 0.273629 0.319725 0.274443 0.273629 0.228516 0.274443 0.229148 0.228516 0.183246 0.229148 0.183688 0.183246 0.137732 0.183688 0.138012 0.137732 0.0919772 0.138012 0.0921338 0.0919772 0.0460378 0.0921338 0.0461062 0.0460378 0 0.0461062 0 0 -0.0460378 0 -0.0461062 -0.0460378 -0.0919772 -0.0461062 -0.0921338 -0.0919772 -0.137732 -0.0921338 -0.138012 -0.137732 -0.183246 -0.138012 -0.183688 -0.183246 -0.228516 -0.183688 -0.229148 -0.228516 -0.273629 -0.229148 -0.274443 -0.273629 -0.318799 -0.274443 -0.319725 -0.318799 -0.364392 -0.319725 -0.365267 -0.364392 -0.410927 -0.365267 -0.411465 -0.410927 -0.459021 -0.411465 -0.458797 -0.459021 -0.509328 -0.458797 -0.507766 -0.509328 -0.562481 -0.507766 -0.558883 -0.562481 -0.619182 -0.558883 -0.612819 -0.619182 -0.680466 -0.612819 -0.670961 -0.680466 -0.74732 -0.670961 -0.735875 -0.74732 -0.816913 -0.735875 -0.807699 -0.816913 -0.876164 -0.807699 -0.873204 -0.876164 -0.911769 -0.873204 -0.912274 -0.911769 -0.948379 -0.912274 -0.952509 -0.948379 -1.00957 -0.952509 -1.01997 -1.00957 -1.08135 -1.01997 -1.09362 -1.08135 -1.15097 -1.09362 -1.16045 -1.15097 -1.21635 -1.16045 -1.22126 -1.21635 -1.27947 -1.22126 -1.27947 1.27947 1.22126 1.27947 1.22656 1.22126 1.16045 1.22656 1.17116 1.16045 1.09362 1.17116 1.10867 1.09362 1.01997 1.10867 1.03421 1.01997 0.952509 1.03421 0.958777 0.952509 0.912274 0.958777 0.912823 0.912274 0.873204 0.912823 0.868292 0.873204 0.807699 0.868292 0.794912 0.807699 0.735875 0.794912 0.721927 0.735875 0.670961 0.721927 0.660543 0.670961 0.612819 0.660543 0.606362 0.612819 0.558883 0.606362 0.555497 0.558883 0.507766 0.555497 0.506517 0.507766 0.458797 0.506517 0.458889 0.458797 0.411465 0.458889 0.412274 0.411465 0.365267 0.412274 0.366345 0.365267 0.319725 0.366345 0.320786 0.319725 0.274443 0.320786 0.275334 0.274443 0.229148 0.275334 0.229812 0.229148 0.183688 0.229812 0.184135 0.183688 0.138012 0.184135 0.138282 0.138012 0.0921338 0.138282 0.0922783 0.0921338 0.0461062 0.0922783 0.0461668 0.0461062 0 0.0461668 0 0 -0.0461062 0 -0.0461668 -0.0461062 -0.0921338 -0.0461668 -0.0922783 -0.0921338 -0.138012 -0.0922783 -0.138282 -0.138012 -0.183688 -0.138282 -0.184135 -0.183688 -0.229148 -0.184135 -0.229812 -0.229148 -0.274443 -0.229812 -0.275334 -0.274443 -0.319725 -0.275334 -0.320786 -0.319725 -0.365267 -0.320786 -0.366345 -0.365267 -0.411465 -0.366345 -0.412274 -0.411465 -0.458797 -0.412274 -0.458889 -0.458797 -0.507766 -0.458889 -0.506517 -0.507766 -0.558883 -0.506517 -0.555497 -0.558883 -0.612819 -0.555497 -0.606362 -0.612819 -0.670961 -0.606362 -0.660543 -0.670961 -0.735875 -0.660543 -0.721927 -0.735875 -0.807699 -0.721927 -0.794912 -0.807699 -0.873204 -0.794912 -0.868292 -0.873204 -0.912274 -0.868292 -0.912823 -0.912274 -0.952509 -0.912823 -0.958777 -0.952509 -1.01997 -0.958777 -1.03421 -1.01997 -1.09362 -1.03421 -1.10867 -1.09362 -1.16045 -1.10867 -1.17116 -1.16045 -1.22126 -1.17116 -1.22656 -1.22126 -1.27947 -1.22656 -1.27947 1.27947 1.22656 1.27947 1.23207 1.22656 1.17116 1.23207 1.18271 1.17116 1.10867 1.18271 1.12655 1.10867 1.03421 1.12655 1.05363 1.03421 0.958777 1.05363 0.968546 0.958777 0.912823 0.968546 0.913406 0.912823 0.868292 0.913406 0.860079 0.868292 0.794912 0.860079 0.777197 0.794912 0.721927 0.777197 0.70545 0.721927 0.660543 0.70545 0.649646 0.660543 0.606362 0.649646 0.600138 0.606362 0.555497 0.600138 0.552547 0.555497 0.506517 0.552547 0.50574 0.506517 0.458889 0.50574 0.459401 0.458889 0.412274 0.459401 0.41341 0.412274 0.366345 0.41341 0.367651 0.366345 0.320786 0.367651 0.321984 0.320786 0.275334 0.321984 0.276288 0.275334 0.229812 0.276288 0.230491 0.229812 0.184135 0.230491 0.184567 0.184135 0.138282 0.184567 0.138528 0.138282 0.0922783 0.138528 0.0923999 0.0922783 0.0461668 0.0923999 0.046214 0.0461668 0 0.046214 0 0 -0.0461668 0 -0.046214 -0.0461668 -0.0922783 -0.046214 -0.0923999 -0.0922783 -0.138282 -0.0923999 -0.138528 -0.138282 -0.184135 -0.138528 -0.184567 -0.184135 -0.229812 -0.184567 -0.230491 -0.229812 -0.275334 -0.230491 -0.276288 -0.275334 -0.320786 -0.276288 -0.321984 -0.320786 -0.366345 -0.321984 -0.367651 -0.366345 -0.412274 -0.367651 -0.41341 -0.412274 -0.458889 -0.41341 -0.459401 -0.458889 -0.506517 -0.459401 -0.50574 -0.506517 -0.555497 -0.50574 -0.552547 -0.555497 -0.606362 -0.552547 -0.600138 -0.606362 -0.660543 -0.600138 -0.649646 -0.660543 -0.721927 -0.649646 -0.70545 -0.721927 -0.794912 -0.70545 -0.777197 -0.794912 -0.868292 -0.777197 -0.860079 -0.868292 -0.912823 -0.860079 -0.913406 -0.912823 -0.958777 -0.913406 -0.968546 -0.958777 -1.03421 -0.968546 -1.05363 -1.03421 -1.10867 -1.05363 -1.12655 -1.10867 -1.17116 -1.12655 -1.18271 -1.17116 -1.22656 -1.18271 -1.23207 -1.22656 -1.27947 -1.23207 -1.27947 1.27947 1.23207 1.27947 1.23759 1.23207 1.18271 1.23759 1.19454 1.18271 1.12655 1.19454 1.14671 1.12655 1.05363 1.14671 1.07987 1.05363 0.968546 1.07987 0.98422 0.968546 0.913406 0.98422 0.91401 0.913406 0.860079 0.91401 0.846165 0.860079 0.777197 0.846165 0.752884 0.777197 0.70545 0.752884 0.68696 0.70545 0.649646 0.68696 0.638881 0.649646 0.600138 0.638881 0.59447 0.600138 0.552547 0.59447 0.55026 0.552547 0.50574 0.55026 0.505595 0.50574 0.459401 0.505595 0.460432 0.459401 0.41341 0.460432 0.414929 0.41341 0.367651 0.414929 0.369203 0.367651 0.321984 0.369203 0.323313 0.321984 0.276288 0.323313 0.27729 0.276288 0.230491 0.27729 0.231163 0.230491 0.184567 0.231163 0.184966 0.184567 0.138528 0.184966 0.138733 0.138528 0.0923999 0.138733 0.0924873 0.0923999 0.046214 0.0924873 0.0462423 0.046214 0 0.0462423 0 0 -0.046214 0 -0.0462423 -0.046214 -0.0923999 -0.0462423 -0.0924873 -0.0923999 -0.138528 -0.0924873 -0.138733 -0.138528 -0.184567 -0.138733 -0.184966 -0.184567 -0.230491 -0.184966 -0.231163 -0.230491 -0.276288 -0.231163 -0.27729 -0.276288 -0.321984 -0.27729 -0.323313 -0.321984 -0.367651 -0.323313 -0.369203 -0.367651 -0.41341 -0.369203 -0.414929 -0.41341 -0.459401 -0.414929 -0.460432 -0.459401 -0.50574 -0.460432 -0.505595 -0.50574 -0.552547 -0.505595 -0.55026 -0.552547 -0.600138 -0.55026 -0.59447 -0.600138 -0.649646 -0.59447 -0.638881 -0.649646 -0.70545 -0.638881 -0.68696 -0.70545 -0.777197 -0.68696 -0.752884 -0.777197 -0.860079 -0.752884 -0.846165 -0.860079 -0.913406 -0.846165 -0.91401 -0.913406 -0.968546 -0.91401 -0.98422 -0.968546 -1.05363 -0.98422 -1.07987 -1.05363 -1.12655 -1.07987 -1.14671 -1.12655 -1.18271 -1.14671 -1.19454 -1.18271 -1.23207 -1.19454 -1.23759 -1.23207 -1.27947 -1.23759 -1.27947 1.27947 1.23759 1.27947 1.24296 1.23759 1.19454 1.24296 1.20607 1.19454 1.14671 1.20607 1.16765 1.14671 1.07987 1.16765 1.11424 1.07987 0.98422 1.11424 1.01042 0.98422 0.91401 1.01042 0.914619 0.91401 0.846165 0.914619 0.821919 0.846165 0.752884 0.821919 0.720563 0.752884 0.68696 0.720563 0.667942 0.68696 0.638881 0.667942 0.628872 0.638881 0.59447 0.628872 0.589654 0.59447 0.55026 0.589654 0.548868 0.55026 0.505595 0.548868 0.506232 0.505595 0.460432 0.506232 0.462078 0.460432 0.414929 0.462078 0.416878 0.414929 0.369203 0.416878 0.371016 0.369203 0.323313 0.371016 0.324766 0.323313 0.27729 0.324766 0.278318 0.27729 0.231163 0.278318 0.231804 0.231163 0.184966 0.231804 0.185308 0.184966 0.138733 0.185308 0.138879 0.138733 0.0924873 0.138879 0.0925293 0.0924873 0.0462423 0.0925293 0.0462461 0.0462423 0 0.0462461 0 0 -0.0462423 0 -0.0462461 -0.0462423 -0.0924873 -0.0462461 -0.0925293 -0.0924873 -0.138733 -0.0925293 -0.138879 -0.138733 -0.184966 -0.138879 -0.185308 -0.184966 -0.231163 -0.185308 -0.231804 -0.231163 -0.27729 -0.231804 -0.278318 -0.27729 -0.323313 -0.278318 -0.324766 -0.323313 -0.369203 -0.324766 -0.371016 -0.369203 -0.414929 -0.371016 -0.416878 -0.414929 -0.460432 -0.416878 -0.462078 -0.460432 -0.505595 -0.462078 -0.506232 -0.505595 -0.55026 -0.506232 -0.548868 -0.55026 -0.59447 -0.548868 -0.589654 -0.59447 -0.638881 -0.589654 -0.628872 -0.638881 -0.68696 -0.628872 -0.667942 -0.68696 -0.752884 -0.667942 -0.720563 -0.752884 -0.846165 -0.720563 -0.821919 -0.846165 -0.91401 -0.821919 -0.914619 -0.91401 -0.98422 -0.914619 -1.01042 -0.98422 -1.07987 -1.01042 -1.11424 -1.07987 -1.14671 -1.11424 -1.16765 -1.14671 -1.19454 -1.16765 -1.20607 -1.19454 -1.23759 -1.20607 -1.24296 -1.23759 -1.27947 -1.24296 -1.27947 1.27947 1.24296 1.27947 1.24795 1.24296 1.20607 1.24795 1.21704 1.20607 1.16765 1.21704 1.18704 1.16765 1.11424 1.18704 1.1549 1.11424 1.01042 1.1549 1.05727 1.01042 0.914619 1.05727 0.915195 0.914619 0.821919 0.915195 0.777054 0.821919 0.720563 0.777054 0.681958 0.720563 0.667942 0.681958 0.650712 0.667942 0.628872 0.650712 0.619954 0.628872 0.589654 0.619954 0.586017 0.589654 0.548868 0.586017 0.548589 0.548868 0.506232 0.548589 0.507795 0.506232 0.462078 0.507795 0.464426 0.462078 0.416878 0.464426 0.4193 0.416878 0.371016 0.4193 0.373096 0.371016 0.324766 0.373096 0.326327 0.324766 0.278318 0.326327 0.279348 0.278318 0.231804 0.2793