# vtk DataFile Version 3.0
#This file was generated by the deal.II library on 2017/9/27 at 13:17:48
ASCII
DATASET UNSTRUCTURED_GRID

POINTS 2688 double
-3.59614 -4.00588e-23 0
-3.46756 0 0
-3.59614 0.0954488 0
-3.4674 0.0939077 0
-3.46756 0 0
-3.33588 0 0
-3.4674 0.0939077 0
-3.33563 0.0893566 0
-3.33588 0 0
-3.19761 0 0
-3.33563 0.0893566 0
-3.19736 0.0821971 0
-3.19761 0 0
-3.04904 0 0
-3.19736 0.0821971 0
-3.04886 0.0736172 0
-3.04904 0 0
-2.88774 0 0
-3.04886 0.0736172 0
-2.88764 0.0658989 0
-2.88774 0 0
-2.71575 0 0
-2.88764 0.0658989 0
-2.7157 0.0618544 0
-2.71575 0 0
-2.54128 0 0
-2.7157 0.0618544 0
-2.54127 0.063154 0
-2.54128 0 0
-2.37396 0 0
-2.54127 0.063154 0
-2.37403 0.0688853 0
-2.37396 0 0
-2.21819 0 0
-2.37403 0.0688853 0
-2.21839 0.0763871 0
-2.21819 0 0
-2.07274 0 0
-2.21839 0.0763871 0
-2.07305 0.0830901 0
-2.07274 0 0
-1.93395 0 0
-2.07305 0.0830901 0
-1.93428 0.0875297 0
-1.93395 0 0
-1.79798 0 0
-1.93428 0.0875297 0
-1.79826 0.0893094 0
-1.79798 0 0
-1.66169 0 0
-1.79826 0.0893094 0
-1.66187 0.0886673 0
-1.66169 0 0
-1.5226 0 0
-1.66187 0.0886673 0
-1.52267 0.0861467 0
-1.5226 0 0
-1.37893 0 0
-1.52267 0.0861467 0
-1.37892 0.0824694 0
-1.37893 0 0
-1.22968 0 0
-1.37892 0.0824694 0
-1.22963 0.0785042 0
-1.22968 0 0
-1.07499 0 0
-1.22963 0.0785042 0
-1.07491 0.0751876 0
-1.07499 0 0
-0.916372 0 0
-1.07491 0.0751876 0
-0.916293 0.073314 0
-0.916372 0 0
-0.756506 0 0
-0.916293 0.073314 0
-0.756436 0.0732528 0
-0.756506 0 0
-0.598249 0 0
-0.756436 0.0732528 0
-0.5982 0.0747893 0
-0.598249 0 0
-0.44354 0 0
-0.5982 0.0747893 0
-0.443516 0.0772358 0
-0.44354 0 0
-0.292881 0 0
-0.443516 0.0772358 0
-0.292876 0.0797347 0
-0.292881 0 0
-0.145533 0 0
-0.292876 0.0797347 0
-0.145535 0.0815464 0
-0.145533 0 0
0 0 0
-0.145535 0.0815464 0
0 0.0822025 0
0 0 0
0.145533 1.94555e-24 0
0 0.0822025 0
0.145535 0.0815464 0
0.145533 1.94555e-24 0
0.292881 -8.07574e-24 0
0.145535 0.0815464 0
0.292876 0.0797347 0
0.292881 -8.07574e-24 0
0.44354 -1.59418e-24 0
0.292876 0.0797347 0
0.443516 0.0772358 0
0.44354 -1.59418e-24 0
0.598249 -1.0798e-23 0
0.443516 0.0772358 0
0.5982 0.0747893 0
0.598249 -1.0798e-23 0
0.756506 -2.22338e-23 0
0.5982 0.0747893 0
0.756436 0.0732528 0
0.756506 -2.22338e-23 0
0.916372 -1.18185e-24 0
0.756436 0.0732528 0
0.916293 0.073314 0
0.916372 -1.18185e-24 0
1.07499 8.64462e-24 0
0.916293 0.073314 0
1.07491 0.0751876 0
1.07499 8.64462e-24 0
1.22968 -6.96014e-24 0
1.07491 0.0751876 0
1.22963 0.0785042 0
1.22968 -6.96014e-24 0
1.37893 -2.49109e-23 0
1.22963 0.0785042 0
1.37892 0.0824694 0
1.37893 -2.49109e-23 0
1.5226 4.06674e-25 0
1.37892 0.0824694 0
1.52267 0.0861467 0
1.5226 4.06674e-25 0
1.66169 -2.09346e-23 0
1.52267 0.0861467 0
1.66187 0.0886673 0
1.66169 -2.09346e-23 0
1.79798 -9.31751e-24 0
1.66187 0.0886673 0
1.79826 0.0893094 0
1.79798 -9.31751e-24 0
1.93395 2.65715e-23 0
1.79826 0.0893094 0
1.93428 0.0875297 0
1.93395 2.65715e-23 0
2.07274 2.9895e-23 0
1.93428 0.0875297 0
2.07305 0.0830901 0
2.07274 2.9895e-23 0
2.21819 -1.87816e-24 0
2.07305 0.0830901 0
2.21839 0.0763871 0
2.21819 -1.87816e-24 0
2.37396 -2.71508e-24 0
2.21839 0.0763871 0
2.37403 0.0688853 0
2.37396 -2.71508e-24 0
2.54128 3.11599e-24 0
2.37403 0.0688853 0
2.54127 0.063154 0
2.54128 3.11599e-24 0
2.71575 8.53567e-24 0
2.54127 0.063154 0
2.7157 0.0618544 0
2.71575 8.53567e-24 0
2.88774 1.29323e-23 0
2.7157 0.0618544 0
2.88764 0.0658989 0
2.88774 1.29323e-23 0
3.04904 3.13241e-24 0
2.88764 0.0658989 0
3.04886 0.0736172 0
3.04904 3.13241e-24 0
3.19761 -1.99594e-23 0
3.04886 0.0736172 0
3.19736 0.0821971 0
3.19761 -1.99594e-23 0
3.33588 -3.11774e-23 0
3.19736 0.0821971 0
3.33563 0.0893566 0
3.33588 -3.11774e-23 0
3.46756 1.86962e-23 0
3.33563 0.0893566 0
3.4674 0.0939077 0
3.46756 1.86962e-23 0
3.59614 -4.00588e-23 0
3.4674 0.0939077 0
3.59614 0.0954488 0
-3.59614 0.0954488 0
-3.4674 0.0939077 0
-3.59614 0.189093 0
-3.46689 0.186202 0
-3.4674 0.0939077 0
-3.33563 0.0893566 0
-3.46689 0.186202 0
-3.33481 0.177638 0
-3.33563 0.0893566 0
-3.19736 0.0821971 0
-3.33481 0.177638 0
-3.19655 0.164089 0
-3.19736 0.0821971 0
-3.04886 0.0736172 0
-3.19655 0.164089 0
-3.04829 0.147719 0
-3.04886 0.0736172 0
-2.88764 0.0658989 0
-3.04829 0.147719 0
-2.88734 0.132859 0
-2.88764 0.0658989 0
-2.7157 0.0618544 0
-2.88734 0.132859 0
-2.71554 0.125025 0
-2.7157 0.0618544 0
-2.54127 0.063154 0
-2.71554 0.125025 0
-2.54123 0.127576 0
-2.54127 0.063154 0
-2.37403 0.0688853 0
-2.54123 0.127576 0
-2.37429 0.138683 0
-2.37403 0.0688853 0
-2.21839 0.0763871 0
-2.37429 0.138683 0
-2.21905 0.153082 0
-2.21839 0.0763871 0
-2.07305 0.0830901 0
-2.21905 0.153082 0
-2.074 0.165829 0
-2.07305 0.0830901 0
-1.93428 0.0875297 0
-2.074 0.165829 0
-1.93527 0.174204 0
-1.93428 0.0875297 0
-1.79826 0.0893094 0
-1.93527 0.174204 0
-1.79905 0.177526 0
-1.79826 0.0893094 0
-1.66187 0.0886673 0
-1.79905 0.177526 0
-1.66234 0.176277 0
-1.66187 0.0886673 0
-1.52267 0.0861467 0
-1.66234 0.176277 0
-1.52283 0.171484 0
-1.52267 0.0861467 0
-1.37892 0.0824694 0
-1.52283 0.171484 0
-1.37886 0.164495 0
-1.37892 0.0824694 0
-1.22963 0.0785042 0
-1.37886 0.164495 0
-1.22944 0.156944 0
-1.22963 0.0785042 0
-1.07491 0.0751876 0
-1.22944 0.156944 0
-1.07468 0.150616 0
-1.07491 0.0751876 0
-0.916293 0.073314 0
-1.07468 0.150616 0
-0.916061 0.147042 0
-0.916293 0.073314 0
-0.756436 0.0732528 0
-0.916061 0.147042 0
-0.756246 0.146944 0
-0.756436 0.0732528 0
-0.5982 0.0747893 0
-0.756246 0.146944 0
-0.59808 0.149907 0
-0.5982 0.0747893 0
-0.443516 0.0772358 0
-0.59808 0.149907 0
-0.443475 0.154598 0
-0.443516 0.0772358 0
-0.292876 0.0797347 0
-0.443475 0.154598 0
-0.292888 0.159372 0
-0.292876 0.0797347 0
-0.145535 0.0815464 0
-0.292888 0.159372 0
-0.145557 0.162823 0
-0.145535 0.0815464 0
0 0.0822025 0
-0.145557 0.162823 0
0 0.164071 0
0 0.0822025 0
0.145535 0.0815464 0
0 0.164071 0
0.145557 0.162823 0
0.145535 0.0815464 0
0.292876 0.0797347 0
0.145557 0.162823 0
0.292888 0.159372 0
0.292876 0.0797347 0
0.443516 0.0772358 0
0.292888 0.159372 0
0.443475 0.154598 0
0.443516 0.0772358 0
0.5982 0.0747893 0
0.443475 0.154598 0
0.59808 0.149907 0
0.5982 0.0747893 0
0.756436 0.0732528 0
0.59808 0.149907 0
0.756246 0.146944 0
0.756436 0.0732528 0
0.916293 0.073314 0
0.756246 0.146944 0
0.916061 0.147042 0
0.916293 0.073314 0
1.07491 0.0751876 0
0.916061 0.147042 0
1.07468 0.150616 0
1.07491 0.0751876 0
1.22963 0.0785042 0
1.07468 0.150616 0
1.22944 0.156944 0
1.22963 0.0785042 0
1.37892 0.0824694 0
1.22944 0.156944 0
1.37886 0.164495 0
1.37892 0.0824694 0
1.52267 0.0861467 0
1.37886 0.164495 0
1.52283 0.171484 0
1.52267 0.0861467 0
1.66187 0.0886673 0
1.52283 0.171484 0
1.66234 0.176277 0
1.66187 0.0886673 0
1.79826 0.0893094 0
1.66234 0.176277 0
1.79905 0.177526 0
1.79826 0.0893094 0
1.93428 0.0875297 0
1.79905 0.177526 0
1.93527 0.174204 0
1.93428 0.0875297 0
2.07305 0.0830901 0
1.93527 0.174204 0
2.074 0.165829 0
2.07305 0.0830901 0
2.21839 0.0763871 0
2.074 0.165829 0
2.21905 0.153082 0
2.21839 0.0763871 0
2.37403 0.0688853 0
2.21905 0.153082 0
2.37429 0.138683 0
2.37403 0.0688853 0
2.54127 0.063154 0
2.37429 0.138683 0
2.54123 0.127576 0
2.54127 0.063154 0
2.7157 0.0618544 0
2.54123 0.127576 0
2.71554 0.125025 0
2.7157 0.0618544 0
2.88764 0.0658989 0
2.71554 0.125025 0
2.88734 0.132859 0
2.88764 0.0658989 0
3.04886 0.0736172 0
2.88734 0.132859 0
3.04829 0.147719 0
3.04886 0.0736172 0
3.19736 0.0821971 0
3.04829 0.147719 0
3.19655 0.164089 0
3.19736 0.0821971 0
3.33563 0.0893566 0
3.19655 0.164089 0
3.33481 0.177638 0
3.33563 0.0893566 0
3.4674 0.0939077 0
3.33481 0.177638 0
3.46689 0.186202 0
3.4674 0.0939077 0
3.59614 0.0954488 0
3.46689 0.186202 0
3.59614 0.189093 0
-3.59614 0.189093 0
-3.46689 0.186202 0
-3.59614 0.281146 0
-3.46601 0.277087 0
-3.46689 0.186202 0
-3.33481 0.177638 0
-3.46601 0.277087 0
-3.3334 0.265017 0
-3.33481 0.177638 0
-3.19655 0.164089 0
-3.3334 0.265017 0
-3.19514 0.245774 0
-3.19655 0.164089 0
-3.04829 0.147719 0
-3.19514 0.245774 0
-3.04732 0.222272 0
-3.04829 0.147719 0
-2.88734 0.132859 0
-3.04732 0.222272 0
-2.88686 0.200689 0
-2.88734 0.132859 0
-2.71554 0.125025 0
-2.88686 0.200689 0
-2.71529 0.189227 0
-2.71554 0.125025 0
-2.54123 0.127576 0
-2.71529 0.189227 0
-2.54115 0.193034 0
-2.54123 0.127576 0
-2.37429 0.138683 0
-2.54115 0.193034 0
-2.37471 0.209309 0
-2.37429 0.138683 0
-2.21905 0.153082 0
-2.37471 0.209309 0
-2.22016 0.230142 0
-2.21905 0.153082 0
-2.074 0.165829 0
-2.22016 0.230142 0
-2.07558 0.248354 0
-2.074 0.165829 0
-1.93527 0.174204 0
-2.07558 0.248354 0
-1.93688 0.260186 0
-1.93527 0.174204 0
-1.79905 0.177526 0
-1.93688 0.260186 0
-1.8003 0.264805 0
-1.79905 0.177526 0
-1.66234 0.176277 0
-1.8003 0.264805 0
-1.66304 0.262959 0
-1.66234 0.176277 0
-1.52283 0.171484 0
-1.66304 0.262959 0
-1.52303 0.256098 0
-1.52283 0.171484 0
-1.37886 0.164495 0
-1.52303 0.256098 0
-1.37869 0.246108 0
-1.37886 0.164495 0
-1.22944 0.156944 0
-1.37869 0.246108 0
-1.22909 0.235291 0
-1.22944 0.156944 0
-1.07468 0.150616 0
-1.22909 0.235291 0
-1.07428 0.226205 0
-1.07468 0.150616 0
-0.916061 0.147042 0
-1.07428 0.226205 0
-0.915693 0.221082 0
-0.916061 0.147042 0
-0.756246 0.146944 0
-0.915693 0.221082 0
-0.755954 0.220985 0
-0.756246 0.146944 0
-0.59808 0.149907 0
-0.755954 0.220985 0
-0.597912 0.225303 0
-0.59808 0.149907 0
-0.443475 0.154598 0
-0.597912 0.225303 0
-0.443439 0.232088 0
-0.443475 0.154598 0
-0.292888 0.159372 0
-0.443439 0.232088 0
-0.292939 0.238955 0
-0.292888 0.159372 0
-0.145557 0.162823 0
-0.292939 0.238955 0
-0.145613 0.243901 0
-0.145557 0.162823 0
0 0.164071 0
-0.145613 0.243901 0
0 0.245686 0
0 0.164071 0
0.145557 0.162823 0
0 0.245686 0
0.145613 0.243901 0
0.145557 0.162823 0
0.292888 0.159372 0
0.145613 0.243901 0
0.292939 0.238955 0
0.292888 0.159372 0
0.443475 0.154598 0
0.292939 0.238955 0
0.443439 0.232088 0
0.443475 0.154598 0
0.59808 0.149907 0
0.443439 0.232088 0
0.597912 0.225303 0
0.59808 0.149907 0
0.756246 0.146944 0
0.597912 0.225303 0
0.755954 0.220985 0
0.756246 0.146944 0
0.916061 0.147042 0
[...]
POINT_DATA 2688
SCALARS x1_displacement double 1
LOOKUP_TABLE default
2.03593 1.92984 2.03593 1.93 1.92984 1.82685 1.93 1.8271 1.82685 1.73045 1.8271 1.7307 1.73045 1.64435 1.7307 1.64453 1.64435 1.57098 1.64453 1.57108 1.57098 1.5083 1.57108 1.50835 1.5083 1.4481 1.50835 1.44811 1.4481 1.38076 1.44811 1.38069 1.38076 1.30186 1.38069 1.30166 1.30186 1.21264 1.30166 1.21233 1.21264 1.11676 1.21233 1.11643 1.11676 1.01806 1.11643 1.01778 1.01806 0.919685 1.01778 0.919505 0.919685 0.824104 0.919505 0.824028 0.824104 0.733103 0.824028 0.733107 0.733103 0.647678 0.733107 0.647731 0.647678 0.567701 0.647731 0.567777 0.567701 0.491648 0.567777 0.491727 0.491648 0.416844 0.491727 0.416914 0.416844 0.34043 0.416914 0.340479 0.34043 0.260469 0.340479 0.260493 0.260469 0.176458 0.260493 0.176463 0.176458 0.0891373 0.176463 0.0891353 0.0891373 0 0.0891353 0 0 -0.0891373 0 -0.0891353 -0.0891373 -0.176458 -0.0891353 -0.176463 -0.176458 -0.260469 -0.176463 -0.260493 -0.260469 -0.34043 -0.260493 -0.340479 -0.34043 -0.416844 -0.340479 -0.416914 -0.416844 -0.491648 -0.416914 -0.491727 -0.491648 -0.567701 -0.491727 -0.567777 -0.567701 -0.647678 -0.567777 -0.647731 -0.647678 -0.733103 -0.647731 -0.733107 -0.733103 -0.824104 -0.733107 -0.824028 -0.824104 -0.919685 -0.824028 -0.919505 -0.919685 -1.01806 -0.919505 -1.01778 -1.01806 -1.11676 -1.01778 -1.11643 -1.11676 -1.21264 -1.11643 -1.21233 -1.21264 -1.30186 -1.21233 -1.30166 -1.30186 -1.38076 -1.30166 -1.38069 -1.38076 -1.4481 -1.38069 -1.44811 -1.4481 -1.5083 -1.44811 -1.50835 -1.5083 -1.57098 -1.50835 -1.57108 -1.57098 -1.64435 -1.57108 -1.64453 -1.64435 -1.73045 -1.64453 -1.7307 -1.73045 -1.82685 -1.7307 -1.8271 -1.82685 -1.92984 -1.8271 -1.93 -1.92984 -2.03593 -1.93 -2.03593 2.03593 1.93 2.03593 1.93051 1.93 1.8271 1.93051 1.82792 1.8271 1.7307 1.82792 1.73151 1.7307 1.64453 1.73151 1.6451 1.64453 1.57108 1.6451 1.57138 1.57108 1.50835 1.57138 1.50851 1.50835 1.44811 1.50851 1.44815 1.44811 1.38069 1.44815 1.38043 1.38069 1.30166 1.38043 1.301 1.30166 1.21233 1.301 1.21138 1.21233 1.11643 1.21138 1.11544 1.11643 1.01778 1.11544 1.01699 1.01778 0.919505 1.01699 0.91903 0.919505 0.824028 0.91903 0.823866 0.824028 0.733107 0.823866 0.733174 0.733107 0.647731 0.733174 0.647922 0.647731 0.567777 0.647922 0.568013 0.567777 0.491727 0.568013 0.491959 0.491727 0.416914 0.491959 0.417104 0.416914 0.340479 0.417104 0.340598 0.340479 0.260493 0.340598 0.260534 0.260493 0.176463 0.260534 0.176451 0.176463 0.0891353 0.176451 0.0891125 0.0891353 0 0.0891125 0 0 -0.0891353 0 -0.0891125 -0.0891353 -0.176463 -0.0891125 -0.176451 -0.176463 -0.260493 -0.176451 -0.260534 -0.260493 -0.340479 -0.260534 -0.340598 -0.340479 -0.416914 -0.340598 -0.417104 -0.416914 -0.491727 -0.417104 -0.491959 -0.491727 -0.567777 -0.491959 -0.568013 -0.567777 -0.647731 -0.568013 -0.647922 -0.647731 -0.733107 -0.647922 -0.733174 -0.733107 -0.824028 -0.733174 -0.823866 -0.824028 -0.919505 -0.823866 -0.91903 -0.919505 -1.01778 -0.91903 -1.01699 -1.01778 -1.11643 -1.01699 -1.11544 -1.11643 -1.21233 -1.11544 -1.21138 -1.21233 -1.30166 -1.21138 -1.301 -1.30166 -1.38069 -1.301 -1.38043 -1.38069 -1.44811 -1.38043 -1.44815 -1.44811 -1.50835 -1.44815 -1.50851 -1.50835 -1.57108 -1.50851 -1.57138 -1.57108 -1.64453 -1.57138 -1.6451 -1.64453 -1.7307 -1.6451 -1.73151 -1.7307 -1.8271 -1.73151 -1.82792 -1.8271 -1.93 -1.82792 -1.93051 -1.93 -2.03593 -1.93051 -2.03593 2.03593 1.93051 2.03593 1.93139 1.93051 1.82792 1.93139 1.82933 1.82792 1.73151 1.82933 1.73292 1.73151 1.6451 1.73292 1.64607 1.6451 1.57138 1.64607 1.57186 1.57138 1.50851 1.57186 1.50876 1.50851 1.44815 1.50876 1.44823 1.44815 1.38043 1.44823 1.38001 1.38043 1.301 1.38001 1.29989 1.301 1.21138 1.29989 1.2098 1.21138 1.11544 1.2098 1.11383 1.11544 1.01699 1.11383 1.01574 1.01699 0.91903 1.01574 0.918326 0.91903 0.823866 0.918326 0.823675 0.823866 0.733174 0.823675 0.733339 0.733174 0.647922 0.733339 0.648265 0.647922 0.568013 0.648265 0.568406 0.568013 0.491959 0.568406 0.492327 0.491959 0.417104 0.492327 0.417396 0.417104 0.340598 0.417396 0.340767 0.340598 0.260534 0.340767 0.26057 0.260534 0.176451 0.26057 0.1764 0.176451 0.0891125 0.1764 0.089057 0.0891125 0 0.089057 0 0 -0.0891125 0 -0.089057 -0.0891125 -0.176451 -0.089057 -0.1764 -0.176451 -0.260534 -0.1764 -0.26057 -0.260534 -0.340598 -0.26057 -0.340767 -0.340598 -0.417104 -0.340767 -0.417396 -0.417104 -0.491959 -0.417396 -0.492327 -0.491959 -0.568013 -0.492327 -0.568406 -0.568013 -0.647922 -0.568406 -0.648265 -0.647922 -0.733174 -0.648265 -0.733339 -0.733174 -0.823866 -0.733339 -0.823675 -0.823866 -0.91903 -0.823675 -0.918326 -0.91903 -1.01699 -0.918326 -1.01574 -1.01699 -1.11544 -1.01574 -1.11383 -1.11544 -1.21138 -1.11383 -1.2098 -1.21138 -1.301 -1.2098 -1.29989 -1.301 -1.38043 -1.29989 -1.38001 -1.38043 -1.44815 -1.38001 -1.44823 -1.44815 -1.50851 -1.44823 -1.50876 -1.50851 -1.57138 -1.50876 -1.57186 -1.57138 -1.6451 -1.57186 -1.64607 -1.6451 -1.73151 -1.64607 -1.73292 -1.73151 -1.82792 -1.73292 -1.82933 -1.82792 -1.93051 -1.82933 -1.93139 -1.93051 -2.03593 -1.93139 -2.03593 2.03593 1.93139 2.03593 1.9327 1.93139 1.82933 1.9327 1.83145 1.82933 1.73292 1.83145 1.73504 1.73292 1.64607 1.73504 1.64751 1.64607 1.57186 1.64751 1.57255 1.57186 1.50876 1.57255 1.5091 1.50876 1.44823 1.5091 1.4483 1.44823 1.38001 1.4483 1.37935 1.38001 1.29989 1.37935 1.29824 1.29989 1.2098 1.29824 1.20752 1.2098 1.11383 1.20752 1.11159 1.11383 1.01574 1.11159 1.01408 1.01574 0.918326 1.01408 0.917469 0.918326 0.823675 0.917469 0.82354 0.823675 0.733339 0.82354 0.733675 0.733339 0.648265 0.733675 0.648809 0.648265 0.568406 0.648809 0.568976 0.568406 0.492327 0.568976 0.49283 0.492327 0.417396 0.49283 0.417764 0.417396 0.340767 0.417764 0.340944 0.340767 0.26057 0.340944 0.260551 0.26057 0.1764 0.260551 0.176269 0.1764 0.089057 0.176269 0.0889435 0.089057 0 0.0889435 0 0 -0.089057 0 -0.0889435 -0.089057 -0.1764 -0.0889435 -0.176269 -0.1764 -0.26057 -0.176269 -0.260551 -0.26057 -0.340767 -0.260551 -0.340944 -0.340767 -0.417396 -0.340944 -0.417764 -0.417396 -0.492327 -0.417764 -0.49283 -0.492327 -0.568406 -0.49283 -0.568976 -0.568406 -0.648265 -0.568976 -0.648809 -0.648265 -0.733339 -0.648809 -0.733675 -0.733339 -0.823675 -0.733675 -0.82354 -0.823675 -0.918326 -0.82354 -0.917469 -0.918326 -1.01574 -0.917469 -1.01408 -1.01574 -1.11383 -1.01408 -1.11159 -1.11383 -1.2098 -1.11159 -1.20752 -1.2098 -1.29989 -1.20752 -1.29824 -1.29989 -1.38001 -1.29824 -1.37935 -1.38001 -1.44823 -1.37935 -1.4483 -1.44823 -1.50876 -1.4483 -1.5091 -1.50876 -1.57186 -1.5091 -1.57255 -1.57186 -1.64607 -1.57255 -1.64751 -1.64607 -1.73292 -1.64751 -1.73504 -1.73292 -1.82933 -1.73504 -1.83145 -1.82933 -1.93139 -1.83145 -1.9327 -1.93139 -2.03593 -1.9327 -2.03593 2.03593 1.9327 2.03593 1.93451 1.9327 1.83145 1.93451 1.83441 1.83145 1.73504 1.83441 1.73805 1.73504 1.64751 1.73805 1.64961 1.64751 1.57255 1.64961 1.57353 1.57255 1.5091 1.57353 1.50953 1.5091 1.4483 1.50953 1.44832 1.4483 1.37935 1.44832 1.37831 1.37935 1.29824 1.37831 1.29588 1.29824 1.20752 1.29588 1.20442 1.20752 1.11159 1.20442 1.10868 1.11159 1.01408 1.10868 1.01205 1.01408 0.917469 1.01205 0.916555 0.917469 0.82354 0.916555 0.823574 0.82354 0.733675 0.823574 0.73429 0.733675 0.648809 0.73429 0.649633 0.648809 0.568976 0.649633 0.569767 0.568976 0.49283 0.569767 0.493469 0.49283 0.417764 0.493469 0.418177 0.417764 0.340944 0.418177 0.341069 0.340944 0.260551 0.341069 0.260407 0.260551 0.176269 0.260407 0.175994 0.176269 0.0889435 0.175994 0.0887353 0.0889435 0 0.0887353 0 0 -0.0889435 0 -0.0887353 -0.0889435 -0.176269 -0.0887353 -0.175994 -0.176269 -0.260551 -0.175994 -0.260407 -0.260551 -0.340944 -0.260407 -0.341069 -0.340944 -0.417764 -0.341069 -0.418177 -0.417764 -0.49283 -0.418177 -0.493469 -0.49283 -0.568976 -0.493469 -0.569767 -0.568976 -0.648809 -0.569767 -0.649633 -0.648809 -0.733675 -0.649633 -0.73429 -0.733675 -0.82354 -0.73429 -0.823574 -0.82354 -0.917469 -0.823574 -0.916555 -0.917469 -1.01408 -0.916555 -1.01205 -1.01408 -1.11159 -1.01205 -1.10868 -1.11159 -1.20752 -1.10868 -1.20442 -1.20752 -1.29824 -1.20442 -1.29588 -1.29824 -1.37935 -1.29588 -1.37831 -1.37935 -1.4483 -1.37831 -1.44832 -1.4483 -1.5091 -1.44832 -1.50953 -1.5091 -1.57255 -1.50953 -1.57353 -1.57255 -1.64751 -1.57353 -1.64961 -1.64751 -1.73504 -1.64961 -1.73805 -1.73504 -1.83145 -1.73805 -1.83441 -1.83145 -1.9327 -1.83441 -1.93451 -1.9327 -2.03593 -1.93451 -2.03593 2.03593 1.93451 2.03593 1.9369 1.93451 1.83441 1.9369 1.8384 1.83441 1.73805 1.8384 1.74223 1.73805 1.64961 1.74223 1.6526 1.64961 1.57353 1.6526 1.57494 1.57353 1.50953 1.57494 1.51007 1.50953 1.44832 1.51007 1.44819 1.44832 1.37831 1.44819 1.3767 1.37831 1.29588 1.3767 1.29258 1.29588 1.20442 1.29258 1.20034 1.20442 1.10868 1.20034 1.10506 1.10868 1.01205 1.10506 1.00971 1.01205 0.916555 1.00971 0.915696 0.916555 0.823574 0.915696 0.823917 0.823574 0.73429 0.823917 0.73532 0.73429 0.649633 0.73532 0.650848 0.649633 0.569767 0.650848 0.57084 0.569767 0.493469 0.57084 0.494254 0.493469 0.418177 0.494254 0.418592 0.418177 0.341069 0.418592 0.341063 0.341069 0.260407 0.341063 0.260041 0.260407 0.175994 0.260041 0.175491 0.175994 0.0887353 0.175491 0.0883844 0.0887353 0 0.0883844 0 0 -0.0887353 0 -0.0883844 -0.0887353 -0.175994 -0.0883844 -0.175491 -0.175994 -0.260407 -0.175491 -0.260041 -0.260407 -0.341069 -0.260041 -0.341063 -0.341069 -0.418177 -0.341063 -0.418592 -0.418177 -0.493469 -0.418592 -0.494254 -0.493469 -0.569767 -0.494254 -0.57084 -0.569767 -0.649633 -0.57084 -0.650848 -0.649633 -0.73429 -0.650848 -0.73532 -0.73429 -0.823574 -0.73532 -0.823917 -0.823574 -0.916555 -0.823917 -0.915696 -0.916555 -1.01205 -0.915696 -1.00971 -1.01205 -1.10868 -1.00971 -1.10506 -1.10868 -1.20442 -1.10506 -1.20034 -1.20442 -1.29588 -1.20034 -1.29258 -1.29588 -1.37831 -1.29258 -1.3767 -1.37831 -1.44832 -1.3767 -1.44819 -1.44832 -1.50953 -1.44819 -1.51007 -1.50953 -1.57353 -1.51007 -1.57494 -1.57353 -1.64961 -1.57494 -1.6526 -1.64961 -1.73805 -1.6526 -1.74223 -1.73805 -1.83441 -1.74223 -1.8384 -1.83441 -1.93451 -1.8384 -1.9369 -1.93451 -2.03593 -1.9369 -2.03593 2.03593 1.9369 2.03593 1.93998 1.9369 1.8384 1.93998 1.84364 1.8384 1.74223 1.84364 1.74792 1.74223 1.6526 1.74792 1.65682 1.6526 1.57494 1.65682 1.57697 1.57494 1.51007 1.57697 1.51074 1.51007 1.44819 1.51074 1.44779 1.44819 1.3767 1.44779 1.37423 1.3767 1.29258 1.37423 1.28801 1.29258 1.20034 1.28801 1.19506 1.20034 1.10506 1.19506 1.10067 1.10506 1.00971 1.10067 1.00712 1.00971 0.915696 1.00712 0.915024 0.915696 0.823917 0.915024 0.824732 0.823917 0.73532 0.824732 0.736933 0.73532 0.650848 0.736933 0.652593 0.650848 0.57084 0.652593 0.57228 0.57084 0.494254 0.57228 0.495198 0.494254 0.418592 0.495198 0.418957 0.418592 0.341063 0.418957 0.340822 0.341063 0.260041 0.340822 0.259332 0.260041 0.175491 0.259332 0.174656 0.175491 0.0883844 0.174656 0.0878322 0.0883844 0 0.0878322 0 0 -0.0883844 0 -0.0878322 -0.0883844 -0.175491 -0.0878322 -0.174656 -0.175491 -0.260041 -0.174656 -0.259332 -0.260041 -0.341063 -0.259332 -0.340822 -0.341063 -0.418592 -0.340822 -0.418957 -0.418592 -0.494254 -0.418957 -0.495198 -0.494254 -0.57084 -0.495198 -0.57228 -0.57084 -0.650848 -0.57228 -0.652593 -0.650848 -0.73532 -0.652593 -0.736933 -0.73532 -0.823917 -0.736933 -0.824732 -0.823917 -0.915696 -0.824732 -0.915024 -0.915696 -1.00971 -0.915024 -1.00712 -1.00971 -1.10506 -1.00712 -1.10067 -1.10506 -1.20034 -1.10067 -1.19506 -1.20034 -1.29258 -1.19506 -1.28801 -1.29258 -1.3767 -1.28801 -1.37423 -1.3767 -1.44819 -1.37423 -1.44779 -1.44819 -1.51007 -1.44779 -1.51074 -1.51007 -1.57494 -1.51074 -1.57697 -1.57494 -1.6526 -1.57697 -1.65682 -1.6526 -1.74223 -1.65682 -1.74792 -1.74223 -1.8384 -1.74792 -1.84364 -1.8384 -1.9369 -1.84364 -1.93998 -1.9369 -2.03593 -1.93998 -2.03593 2.03593 1.93998 2.03593 1.9438 1.93998 1.84364 1.9438 1.85034 1.84364 1.74792 1.85034 1.7555 1.74792 1.65682 1.7555 1.66275 1.65682 1.57697 1.66275 1.57991 1.57697 1.51074 1.57991 1.51158 1.51074 1.44779 1.51158 1.44694 1.44779 1.37423 1.44694 1.3705 1.37423 1.28801 1.3705 1.28176 1.28801 1.19506 1.28176 1.18838 1.19506 1.10067 1.18838 1.0955 1.10067 1.00712 1.0955 1.00437 1.00712 0.915024 1.00437 0.914686 0.915024 0.824732 0.914686 0.826205 0.824732 0.736933 0.826205 0.739329 0.736933 0.652593 0.739329 0.65504 0.652593 0.57228 0.65504 0.574193 0.57228 0.495198 0.574193 0.496321 0.495198 0.418957 0.496321 0.419204 0.418957 0.340822 0.419204 0.340215 0.340822 0.259332 0.340215 0.258127 0.259332 0.174656 0.258127 0.173364 0.174656 0.0878322 0.173364 0.0870099 0.0878322 0 0.0870099 0 0 -0.0878322 0 -0.0870099 -0.0878322 -0.174656 -0.0870099 -0.173364 -0.174656 -0.259332 -0.173364 -0.258127 -0.259332 -0.340822 -0.258127 -0.340215 -0.340822 -0.418957 -0.340215 -0.419204 -0.418957 -0.495198 -0.419204 -0.496321 -0.495198 -0.57228 -0.496321 -0.574193 -0.57228 -0.652593 -0.574193 -0.65504 -0.652593 -0.736933 -0.65504 -0.739329 -0.736933 -0.824732 -0.739329 -0.826205 -0.824732 -0.915024 -0.826205 -0.914686 -0.915024 -1.00712 -0.914686 -1.00437 -1.00712 -1.10067 -1.00437 -1.0955 -1.10067 -1.19506 -1.0955 -1.18838 -1.19506 -1.28801 -1.18838 -1.28176 -1.28801 -1.37423 -1.28176 -1.3705 -1.37423 -1.44779 -1.3705 -1.44694 -1.44779 -1.51074 -1.44694 -1.51158 -1.51074 -1.57697 -1.51158 -1.57991 -1.57697 -1.65682 -1.57991 -1.66275 -1.65682 -1.74792 -1.66275 -1.7555 -1.74792 -1.84364 -1.7555 -1.85034 -1.84364 -1.93998 -1.85034 -1.9438 -1.93998 -2.03593 -1.9438 -2.03593 2.03593 1.9438 2.03593 1.9484 1.9438 1.85034 1.9484 1.85868 1.85034 1.7555 1.85868 1.76543 1.7555 1.66275 1.76543 1.67099 1.66275 1.57991 1.67099 1.58417 1.57991 1.51158 1.58417 1.51265 1.51158 1.44694 1.51265 1.44535 1.44694 1.3705 1.44535 1.36495 1.3705 1.28176 1.36495 1.27334 1.28176 1.18838 1.27334 1.18006 1.18838 1.0955 1.18006 1.08953 1.0955 1.00437 1.08953 1.00157 1.00437 0.914686 1.00157 0.91485 0.914686 0.826205 0.91485 0.828545 0.826205 0.739329 0.828545 0.742738 0.739329 0.65504 0.742738 0.658404 0.65504 0.574193 0.658404 0.576716 0.574193 0.496321 0.576716 0.497645 0.496321 0.419204 0.497645 0.41924 0.419204 0.340215 0.41924 0.339069 0.340215 0.258127 0.339069 0.256237 0.258127 0.173364 0.256237 0.171465 0.173364 0.0870099 0.171465 0.0858402 0.0870099 0 0.0858402 0 0 -0.0870099 0 -0.0858402 -0.0870099 -0.173364 -0.0858402 -0.171465 -0.173364 -0.258127 -0.171465 -0.256237 -0.258127 -0.340215 -0.256237 -0.339069 -0.340215 -0.419204 -0.339069 -0.41924 -0.419204 -0.496321 -0.41924 -0.497645 -0.496321 -0.574193 -0.497645 -0.576716 -0.574193 -0.65504 -0.576716 -0.658404 -0.65504 -0.739329 -0.658404 -0.742738 -0.739329 -0.826205 -0.742738 -0.828545 -0.826205 -0.914686 -0.828545 -0.91485 -0.914686 -1.00437 -0.91485 -1.00157 -1.00437 -1.0955 -1.00157 -1.08953 -1.0955 -1.18838 -1.08953 -1.18006 -1.18838 -1.28176 -1.18006 -1.27334 -1.28176 -1.3705 -1.27334 -1.36495 -1.3705 -1.44694 -1.36495 -1.44535 -1.44694 -1.51158 -1.44535 -1.51265 -1.51158 -1.57991 -1.51265 -1.58417 -1.57991 -1.66275 -1.58417 -1.67099 -1.66275 -1.7555 -1.67099 -1.76543 -1.7555 -1.85034 -1.76543 -1.85868 -1.85034 -1.9438 -1.85868 -1.9484 -1.9438 -2.03593 -1.9484 -2.03593 2.03593 1.9484 2.03593 1.95378 1.9484 1.85868 1.95378 1.86876 1.85868 1.76543 1.86876 1.77817 1.76543 1.67099 1.77817 1.68235 1.67099 1.58417 1.68235 1.59038 1.58417 1.51265 1.59038 1.51403 1.51265 1.44535 1.51403 1.44257 1.44535 1.36495 1.44257 1.35676 1.36495 1.27334 1.35676 1.26215 1.27334 1.18006 1.26215 1.16994 1.18006 1.08953 1.16994 1.08285 1.08953 1.00157 1.08285 0.998858 1.00157 0.91485 0.998858 0.915691 0.91485 0.828545 0.915691 0.831971 0.828545 0.742738 0.831971 0.747428 0.742738 0.658404 0.747428 0.662948 0.658404 0.576716 0.662948 0.580028 0.576716 0.497645 0.580028 0.499201 0.497645 0.41924 0.499201 0.418941 0.41924 0.339069 0.418941 0.33716 0.339069 0.256237 0.33716 0.25343 0.256237 0.171465 0.25343 0.168792 0.171465 0.0858402 0.168792 0.0842403 0.0858402 0 0.0842403 0 0 -0.0858402 0 -0.0842403 -0.0858402 -0.171465 -0.0842403 -0.168792 -0.171465 -0.256237 -0.168792 -0.25343 -0.256237 -0.339069 -0.25343 -0.33716 -0.339069 -0.41924 -0.33716 -0.418941 -0.41924 -0.497645 -0.418941 -0.499201 -0.497645 -0.576716 -0.499201 -0.580028 -0.576716 -0.658404 -0.580028 -0.662948 -0.658404 -0.742738 -0.662948 -0.747428 -0.742738 -0.828545 -0.747428 -0.831971 -0.828545 -0.91485 -0.831971 -0.915691 -0.91485 -1.00157 -0.915691 -0.998858 -1.00157 -1.08953 -0.998858 -1.08285 -1.08953 -1.18006 -1.08285 -1.16994 -1.18006 -1.27334 -1.16994 -1.26215 -1.27334 -1.36495 -1.26215 -1.35676 -1.36495 -1.44535 -1.35676 -1.44257 -1.44535 -1.51265 -1.44257 -1.51403 -1.51265 -1.58417 -1.51403 -1.59038 -1.58417 -1.67099 -1.59038 -1.68235 -1.67099 -1.76543 -1.68235 -1.77817 -1.76543 -1.85868 -1.77817 -1.86876 -1.85868 -1.9484 -1.86876 -1.95378 -1.9484 -2.03593 -1.95378 -2.03593 2.03593 1.95378 2.03593 1.95985 1.95378 1.86876 1.95985 1.88053 1.86876 1.77817 1.88053 1.79408 1.77817 1.68235 1.79408 1.69789 1.68235 1.59038 1.69789 1.59955 1.59038 1.51403 1.59955 1.51588 1.51403 1.44257 1.51588 1.43788 1.44257 1.35676 1.43788 1.34478 1.35676 1.26215 1.34478 1.24756 1.26215 1.16994 1.24756 1.158 1.16994 1.08285 1.158 1.07559 1.08285 0.998858 1.07559 0.9964 0.998858 0.915691 0.9964 0.917384 0.915691 0.831971 0.917384 0.836708 0.831971 0.747428 0.836708 0.753695 0.747428 0.662948 0.753695 0.669003 0.662948 0.580028 0.669003 0.584372 0.580028 0.499201 0.584372 0.501028 0.499201 0.418941 0.501028 0.418128 0.418941 0.33716 0.418128 0.334187 0.33716 0.25343 0.334187 0.249421 0.25343 0.168792 0.249421 0.165159 0.168792 0.0842403 0.165159 0.0821271 0.0842403 0 0.0821271 0 0 -0.0842403 0 -0.0821271 -0.0842403 -0.168792 -0.0821271 -0.165159 -0.168792 -0.25343 -0.165159 -0.249421 -0.25343 -0.33716 -0.249421 -0.334187 -0.33716 -0.418941 -0.334187 -0.418128 -0.418941 -0.499201 -0.418128 -0.501028 -0.499201 -0.580028 -0.501028 -0.584372 -0.580028 -0.662948 -0.584372 -0.669003 -0.662948 -0.747428 -0.669003 -0.753695 -0.747428 -0.831971 -0.753695 -0.836708 -0.831971 -0.915691 -0.836708 -0.917384 -0.915691 -0.998858 -0.917384 -0.9964 -0.998858 -1.08285 -0.9964 -1.07559 -1.08285 -1.16994 -1.07559 -1.158 -1.16994 -1.26215 -1.158 -1.24756 -1.26215 -1.35676 -1.24756 -1.34478 -1.35676 -1.44257 -1.34478 -1.43788 -1.44257 -1.51403 -1.43788 -1.51588 -1.51403 -1.59038 -1.51588 -1.59955 -1.59038 -1.68235 -1.59955 -1.69789 -1.68235 -1.77817 -1.69789 -1.79408 -1.77817 -1.86876 -1.79408 -1.88053 -1.86876 -1.95378 -1.88053 -1.95985 -1.95378 -2.03593 -1.95985 -2.03593 2.03593 1.95985 2.03593 1.96652 1.95985 1.88053 1.96652 1.89378 1.88053 1.79408 1.89378 1.81326 1.79408 1.69789 1.81326 1.71896 1.69789 1.59955 1.71896 1.61336 1.59955 1.51588 1.61336 1.5185 1.51588 1.43788 1.5185 1.42994 1.43788 1.34478 1.42994 1.32731 1.34478 1.24756 1.32731 1.22911 1.24756 1.158 1.22911 1.14442 1.158 1.07559 1.14442 1.06798 1.07559 0.9964 1.06798 0.994368 0.9964 0.917384 0.994368 0.920098 0.917384 0.836708 0.920098 0.84297 0.836708 0.753695 0.84297 0.761865 0.753695 0.669003 0.761865 0.676989 0.669003 0.584372 0.676989 0.590089 0.584372 0.501028 0.590089 0.503183 0.501028 0.418128 0.503183 0.416538 0.418128 0.334187 0.416538 0.329742 0.334187 0.249421 0.329742 0.243873 0.249421 0.165159 0.243873 0.160377 0.165159 0.0821271 0.160377 0.079425 0.0821271 0 0.079425 0 0 -0.0821271 0 -0.079425 -0.0821271 -0.165159 -0.079425 -0.160377 -0.165159 -0.249421 -0.160377 -0.243873 -0.249421 -0.334187 -0.243873 -0.329742 -0.334187 -0.418128 -0.329742 -0.416538 -0.418128 -0.501028 -0.416538 -0.503183 -0.501028 -0.584372 -0.503183 -0.590089 -0.584372 -0.669003 -0.590089 -0.676989 -0.669003 -0.753695 -0.676989 -0.761865 -0.753695 -0.836708 -0.761865 -0.84297 -0.836708 -0.917384 -0.84297 -0.920098 -0.917384 -0.9964 -0.920098 -0.994368 -0.9964 -1.07559 -0.994368 -1.06798 -1.07559 -1.158 -1.06798 -1.14442 -1.158 -1.24756 -1.14442 -1.22911 -1.24756 -1.34478 -1.22911 -1.32731 -1.34478 -1.43788 -1.32731 -1.42994 -1.43788 -1.51588 -1.42994 -1.5185 -1.51588 -1.59955 -1.5185 -1.61336 -1.59955 -1.69789 