# vtk DataFile Version 3.0
#This file was generated by the deal.II library on 2017/9/27 at 13:18:54
ASCII
DATASET UNSTRUCTURED_GRID

POINTS 2688 double
-4.34582 -1.00312e-22 0
-4.1929 0 0
-4.34582 0.095534 0
-4.19234 0.0944027 0
-4.1929 0 0
-4.03891 0 0
-4.19234 0.0944027 0
-4.03797 0.090573 0
-4.03891 0 0
-3.88089 0 0
-4.03797 0.090573 0
-3.8799 0.0830625 0
-3.88089 0 0
-3.71263 0 0
-3.8799 0.0830625 0
-3.71194 0.0716466 0
-3.71263 0 0
-3.52604 0 0
-3.71194 0.0716466 0
-3.52575 0.0592669 0
-3.52604 0 0
-3.32016 0 0
-3.52575 0.0592669 0
-3.3201 0.0529256 0
-3.32016 0 0
-3.11315 0 0
-3.3201 0.0529256 0
-3.11332 0.0580271 0
-3.11315 0 0
-2.92357 0 0
-3.11332 0.0580271 0
-2.92419 0.0690384 0
-2.92357 0 0
-2.75059 0 0
-2.92419 0.0690384 0
-2.75161 0.0788176 0
-2.75059 0 0
-2.58544 0 0
-2.75161 0.0788176 0
-2.58655 0.0843872 0
-2.58544 0 0
-2.42071 0 0
-2.58655 0.0843872 0
-2.42165 0.0861205 0
-2.42071 0 0
-2.25222 0 0
-2.42165 0.0861205 0
-2.25288 0.0854246 0
-2.25222 0 0
-2.07835 0 0
-2.25288 0.0854246 0
-2.07872 0.0835488 0
-2.07835 0 0
-1.89903 0 0
-2.07872 0.0835488 0
-1.89919 0.0813284 0
-1.89903 0 0
-1.71506 0 0
-1.89919 0.0813284 0
-1.71508 0.0792526 0
-1.71506 0 0
-1.52759 0 0
-1.71508 0.0792526 0
-1.52753 0.0775683 0
-1.52759 0 0
-1.33779 0 0
-1.52753 0.0775683 0
-1.33769 0.0763571 0
-1.33779 0 0
-1.1467 0 0
-1.33769 0.0763571 0
-1.1466 0.0755931 0
-1.1467 0 0
-0.955096 0 0
-1.1466 0.0755931 0
-0.955009 0.0751904 0
-0.955096 0 0
-0.763498 0 0
-0.955009 0.0751904 0
-0.763431 0.075041 0
-0.763498 0 0
-0.572173 0 0
-0.763431 0.075041 0
-0.572126 0.07504 0
-0.572173 0 0
-0.381196 0 0
-0.572126 0.07504 0
-0.381167 0.075101 0
-0.381196 0 0
-0.190515 0 0
-0.381167 0.075101 0
-0.190502 0.075162 0
-0.190515 0 0
0 0 0
-0.190502 0.075162 0
0 0.0751863 0
0 0 0
0.190515 8.53404e-24 0
0 0.0751863 0
0.190502 0.075162 0
0.190515 8.53404e-24 0
0.381196 3.02462e-23 0
0.190502 0.075162 0
0.381167 0.075101 0
0.381196 3.02462e-23 0
0.572173 -5.66757e-23 0
0.381167 0.075101 0
0.572126 0.07504 0
0.572173 -5.66757e-23 0
0.763498 -2.29914e-23 0
0.572126 0.07504 0
0.763431 0.075041 0
0.763498 -2.29914e-23 0
0.955096 -6.27908e-23 0
0.763431 0.075041 0
0.955009 0.0751904 0
0.955096 -6.27908e-23 0
1.1467 3.28116e-23 0
0.955009 0.0751904 0
1.1466 0.0755931 0
1.1467 3.28116e-23 0
1.33779 3.53737e-23 0
1.1466 0.0755931 0
1.33769 0.0763571 0
1.33779 3.53737e-23 0
1.52759 2.26158e-23 0
1.33769 0.0763571 0
1.52753 0.0775683 0
1.52759 2.26158e-23 0
1.71506 -7.10449e-23 0
1.52753 0.0775683 0
1.71508 0.0792526 0
1.71506 -7.10449e-23 0
1.89903 -4.22804e-23 0
1.71508 0.0792526 0
1.89919 0.0813284 0
1.89903 -4.22804e-23 0
2.07835 -7.39458e-23 0
1.89919 0.0813284 0
2.07872 0.0835488 0
2.07835 -7.39458e-23 0
2.25222 -1.83308e-23 0
2.07872 0.0835488 0
2.25288 0.0854246 0
2.25222 -1.83308e-23 0
2.42071 1.03771e-22 0
2.25288 0.0854246 0
2.42165 0.0861205 0
2.42071 1.03771e-22 0
2.58544 5.51062e-23 0
2.42165 0.0861205 0
2.58655 0.0843872 0
2.58544 5.51062e-23 0
2.75059 6.9494e-23 0
2.58655 0.0843872 0
2.75161 0.0788176 0
2.75059 6.9494e-23 0
2.92357 3.3783e-23 0
2.75161 0.0788176 0
2.92419 0.0690384 0
2.92357 3.3783e-23 0
3.11315 5.84879e-23 0
2.92419 0.0690384 0
3.11332 0.0580271 0
3.11315 5.84879e-23 0
3.32016 2.08879e-23 0
3.11332 0.0580271 0
3.3201 0.0529256 0
3.32016 2.08879e-23 0
3.52604 3.17105e-23 0
3.3201 0.0529256 0
3.52575 0.0592669 0
3.52604 3.17105e-23 0
3.71263 -1.84331e-23 0
3.52575 0.0592669 0
3.71194 0.0716466 0
3.71263 -1.84331e-23 0
3.88089 -4.05685e-23 0
3.71194 0.0716466 0
3.8799 0.0830625 0
3.88089 -4.05685e-23 0
4.03891 -7.20146e-23 0
3.8799 0.0830625 0
4.03797 0.090573 0
4.03891 -7.20146e-23 0
4.1929 6.27901e-23 0
4.03797 0.090573 0
4.19234 0.0944027 0
4.1929 6.27901e-23 0
4.34582 -1.00312e-22 0
4.19234 0.0944027 0
4.34582 0.095534 0
-4.34582 0.095534 0
-4.19234 0.0944027 0
-4.34582 0.188855 0
-4.19073 0.186772 0
-4.19234 0.0944027 0
-4.03797 0.090573 0
-4.19073 0.186772 0
-4.03522 0.179686 0
-4.03797 0.090573 0
-3.8799 0.0830625 0
-4.03522 0.179686 0
-3.87696 0.16565 0
-3.8799 0.0830625 0
-3.71194 0.0716466 0
-3.87696 0.16565 0
-3.70989 0.143975 0
-3.71194 0.0716466 0
-3.52575 0.0592669 0
-3.70989 0.143975 0
-3.52496 0.120006 0
-3.52575 0.0592669 0
-3.3201 0.0529256 0
-3.52496 0.120006 0
-3.31993 0.107515 0
-3.3201 0.0529256 0
-3.11332 0.0580271 0
-3.31993 0.107515 0
-3.11379 0.117646 0
-3.11332 0.0580271 0
-2.92419 0.0690384 0
-3.11379 0.117646 0
-2.926 0.139047 0
-2.92419 0.0690384 0
-2.75161 0.0788176 0
-2.926 0.139047 0
-2.75455 0.157666 0
-2.75161 0.0788176 0
-2.58655 0.0843872 0
-2.75455 0.157666 0
-2.58972 0.168073 0
-2.58655 0.0843872 0
-2.42165 0.0861205 0
-2.58972 0.168073 0
-2.42429 0.171215 0
-2.42165 0.0861205 0
-2.25288 0.0854246 0
-2.42429 0.171215 0
-2.25468 0.169819 0
-2.25288 0.0854246 0
-2.07872 0.0835488 0
-2.25468 0.169819 0
-2.07974 0.166232 0
-2.07872 0.0835488 0
-1.89919 0.0813284 0
-2.07974 0.166232 0
-1.89961 0.162014 0
-1.89919 0.0813284 0
-1.71508 0.0792526 0
-1.89961 0.162014 0
-1.71511 0.15808 0
-1.71508 0.0792526 0
-1.52753 0.0775683 0
-1.71511 0.15808 0
-1.52734 0.154892 0
-1.52753 0.0775683 0
-1.33769 0.0763571 0
-1.52734 0.154892 0
-1.33742 0.152604 0
-1.33769 0.0763571 0
-1.1466 0.0755931 0
-1.33742 0.152604 0
-1.14631 0.151165 0
-1.1466 0.0755931 0
-0.955009 0.0751904 0
-1.14631 0.151165 0
-0.954764 0.15041 0
-0.955009 0.0751904 0
-0.763431 0.075041 0
-0.954764 0.15041 0
-0.763243 0.150134 0
-0.763431 0.075041 0
-0.572126 0.07504 0
-0.763243 0.150134 0
-0.571995 0.150138 0
-0.572126 0.07504 0
-0.381167 0.075101 0
-0.571995 0.150138 0
-0.381087 0.150257 0
-0.381167 0.075101 0
-0.190502 0.075162 0
-0.381087 0.150257 0
-0.190464 0.150375 0
-0.190502 0.075162 0
0 0.0751863 0
-0.190464 0.150375 0
0 0.150422 0
0 0.0751863 0
0.190502 0.075162 0
0 0.150422 0
0.190464 0.150375 0
0.190502 0.075162 0
0.381167 0.075101 0
0.190464 0.150375 0
0.381087 0.150257 0
0.381167 0.075101 0
0.572126 0.07504 0
0.381087 0.150257 0
0.571995 0.150138 0
0.572126 0.07504 0
0.763431 0.075041 0
0.571995 0.150138 0
0.763243 0.150134 0
0.763431 0.075041 0
0.955009 0.0751904 0
0.763243 0.150134 0
0.954764 0.15041 0
0.955009 0.0751904 0
1.1466 0.0755931 0
0.954764 0.15041 0
1.14631 0.151165 0
1.1466 0.0755931 0
1.33769 0.0763571 0
1.14631 0.151165 0
1.33742 0.152604 0
1.33769 0.0763571 0
1.52753 0.0775683 0
1.33742 0.152604 0
1.52734 0.154892 0
1.52753 0.0775683 0
1.71508 0.0792526 0
1.52734 0.154892 0
1.71511 0.15808 0
1.71508 0.0792526 0
1.89919 0.0813284 0
1.71511 0.15808 0
1.89961 0.162014 0
1.89919 0.0813284 0
2.07872 0.0835488 0
1.89961 0.162014 0
2.07974 0.166232 0
2.07872 0.0835488 0
2.25288 0.0854246 0
2.07974 0.166232 0
2.25468 0.169819 0
2.25288 0.0854246 0
2.42165 0.0861205 0
2.25468 0.169819 0
2.42429 0.171215 0
2.42165 0.0861205 0
2.58655 0.0843872 0
2.42429 0.171215 0
2.58972 0.168073 0
2.58655 0.0843872 0
2.75161 0.0788176 0
2.58972 0.168073 0
2.75455 0.157666 0
2.75161 0.0788176 0
2.92419 0.0690384 0
2.75455 0.157666 0
2.926 0.139047 0
2.92419 0.0690384 0
3.11332 0.0580271 0
2.926 0.139047 0
3.11379 0.117646 0
3.11332 0.0580271 0
3.3201 0.0529256 0
3.11379 0.117646 0
3.31993 0.107515 0
3.3201 0.0529256 0
3.52575 0.0592669 0
3.31993 0.107515 0
3.52496 0.120006 0
3.52575 0.0592669 0
3.71194 0.0716466 0
3.52496 0.120006 0
3.70989 0.143975 0
3.71194 0.0716466 0
3.8799 0.0830625 0
3.70989 0.143975 0
3.87696 0.16565 0
3.8799 0.0830625 0
4.03797 0.090573 0
3.87696 0.16565 0
4.03522 0.179686 0
4.03797 0.090573 0
4.19234 0.0944027 0
4.03522 0.179686 0
4.19073 0.186772 0
4.19234 0.0944027 0
4.34582 0.095534 0
4.19073 0.186772 0
4.34582 0.188855 0
-4.34582 0.188855 0
-4.19073 0.186772 0
-4.34582 0.279997 0
-4.18814 0.277157 0
-4.19073 0.186772 0
-4.03522 0.179686 0
-4.18814 0.277157 0
-4.03077 0.267439 0
-4.03522 0.179686 0
-3.87696 0.16565 0
-4.03077 0.267439 0
-3.87215 0.247918 0
-3.87696 0.16565 0
-3.70989 0.143975 0
-3.87215 0.247918 0
-3.70652 0.217087 0
-3.70989 0.143975 0
-3.52496 0.120006 0
-3.70652 0.217087 0
-3.52373 0.182029 0
-3.52496 0.120006 0
-3.31993 0.107515 0
-3.52373 0.182029 0
-3.31968 0.163305 0
-3.31993 0.107515 0
-3.11379 0.117646 0
-3.31968 0.163305 0
-3.11451 0.178684 0
-3.11379 0.117646 0
-2.926 0.139047 0
-3.11451 0.178684 0
-2.92899 0.210146 0
-2.926 0.139047 0
-2.75455 0.157666 0
-2.92899 0.210146 0
-2.75933 0.23672 0
-2.75455 0.157666 0
-2.58972 0.168073 0
-2.75933 0.23672 0
-2.59475 0.25117 0
-2.58972 0.168073 0
-2.42429 0.171215 0
-2.59475 0.25117 0
-2.42839 0.255336 0
-2.42429 0.171215 0
-2.25468 0.169819 0
-2.42839 0.255336 0
-2.25744 0.253202 0
-2.25468 0.169819 0
-2.07974 0.166232 0
-2.25744 0.253202 0
-2.08127 0.248055 0
-2.07974 0.166232 0
-1.89961 0.162014 0
-2.08127 0.248055 0
-1.90022 0.242055 0
-1.89961 0.162014 0
-1.71511 0.15808 0
-1.90022 0.242055 0
-1.71513 0.236474 0
-1.71511 0.15808 0
-1.52734 0.154892 0
-1.71513 0.236474 0
-1.52704 0.231963 0
-1.52734 0.154892 0
-1.33742 0.152604 0
-1.52704 0.231963 0
-1.33699 0.228733 0
-1.33742 0.152604 0
-1.14631 0.151165 0
-1.33699 0.228733 0
-1.14588 0.22671 0
-1.14631 0.151165 0
-0.954764 0.15041 0
-1.14588 0.22671 0
-0.954386 0.225657 0
-0.954764 0.15041 0
-0.763243 0.150134 0
-0.954386 0.225657 0
-0.762952 0.225279 0
-0.763243 0.150134 0
-0.571995 0.150138 0
-0.762952 0.225279 0
-0.571794 0.225295 0
-0.571995 0.150138 0
-0.381087 0.150257 0
-0.571794 0.225295 0
-0.380964 0.225471 0
-0.381087 0.150257 0
-0.190464 0.150375 0
-0.380964 0.225471 0
-0.190407 0.225642 0
-0.190464 0.150375 0
0 0.150422 0
-0.190407 0.225642 0
0 0.225709 0
0 0.150422 0
0.190464 0.150375 0
0 0.225709 0
0.190407 0.225642 0
0.190464 0.150375 0
0.381087 0.150257 0
0.190407 0.225642 0
0.380964 0.225471 0
0.381087 0.150257 0
0.571995 0.150138 0
0.380964 0.225471 0
0.571794 0.225295 0
0.571995 0.150138 0
0.763243 0.150134 0
0.571794 0.225295 0
0.762952 0.225279 0
0.763243 0.150134 0
0.954764 0.15041 0
0.762952 0.225279 0
0.954386 0.225657 0
0.954764 0.15041 0
1.14631 0.151165 0
0.954386 0.225657 0
1.14588 0.22671 0
1.14631 0.151165 0
1.33742 0.152604 0
[...]
POINT_DATA 2688
SCALARS x1_displacement double 1
LOOKUP_TABLE default
1.28625 1.2045 1.28625 1.20506 1.2045 1.12382 1.20506 1.12476 1.12382 1.04717 1.12476 1.04816 1.04717 0.980761 1.04816 0.981455 0.980761 0.932682 0.981455 0.932969 0.932682 0.90389 0.932969 0.90395 0.90389 0.876234 0.90395 0.87606 0.876234 0.831155 0.87606 0.830532 0.831155 0.769456 0.830532 0.768444 0.769456 0.699939 0.768444 0.698828 0.699939 0.629998 0.698828 0.629056 0.629998 0.563816 0.629056 0.563162 0.563816 0.503025 0.563162 0.50265 0.503025 0.447672 0.50265 0.447513 0.447672 0.396967 0.447513 0.39695 0.396967 0.349771 0.39695 0.349833 0.349771 0.304901 0.349833 0.304997 0.304901 0.261324 0.304997 0.261424 0.261324 0.218254 0.261424 0.218341 0.218254 0.175181 0.218341 0.175248 0.175181 0.131836 0.175248 0.131883 0.131836 0.0881431 0.131883 0.0881721 0.0881431 0.0441545 0.0881721 0.0441681 0.0441545 0 0.0441681 0 0 -0.0441545 0 -0.0441681 -0.0441545 -0.0881431 -0.0441681 -0.0881721 -0.0881431 -0.131836 -0.0881721 -0.131883 -0.131836 -0.175181 -0.131883 -0.175248 -0.175181 -0.218254 -0.175248 -0.218341 -0.218254 -0.261324 -0.218341 -0.261424 -0.261324 -0.304901 -0.261424 -0.304997 -0.304901 -0.349771 -0.304997 -0.349833 -0.349771 -0.396967 -0.349833 -0.39695 -0.396967 -0.447672 -0.39695 -0.447513 -0.447672 -0.503025 -0.447513 -0.50265 -0.503025 -0.563816 -0.50265 -0.563162 -0.563816 -0.629998 -0.563162 -0.629056 -0.629998 -0.699939 -0.629056 -0.698828 -0.699939 -0.769456 -0.698828 -0.768444 -0.769456 -0.831155 -0.768444 -0.830532 -0.831155 -0.876234 -0.830532 -0.87606 -0.876234 -0.90389 -0.87606 -0.90395 -0.90389 -0.932682 -0.90395 -0.932969 -0.932682 -0.980761 -0.932969 -0.981455 -0.980761 -1.04717 -0.981455 -1.04816 -1.04717 -1.12382 -1.04816 -1.12476 -1.12382 -1.2045 -1.12476 -1.20506 -1.2045 -1.28625 -1.20506 -1.28625 1.28625 1.20506 1.28625 1.20667 1.20506 1.12476 1.20667 1.12751 1.12476 1.04816 1.12751 1.0511 1.04816 0.981455 1.0511 0.983498 0.981455 0.932969 0.983498 0.933755 0.932969 0.90395 0.933755 0.904116 0.90395 0.87606 0.904116 0.875594 0.87606 0.830532 0.875594 0.828716 0.830532 0.768444 0.828716 0.765501 0.768444 0.698828 0.765501 0.69566 0.698828 0.629056 0.69566 0.626422 0.629056 0.563162 0.626422 0.56136 0.563162 0.50265 0.56136 0.501635 0.50265 0.447513 0.501635 0.447094 0.447513 0.39695 0.447094 0.39692 0.39695 0.349833 0.39692 0.350019 0.349833 0.304997 0.350019 0.305271 0.304997 0.261424 0.305271 0.261705 0.261424 0.218341 0.261705 0.218586 0.218341 0.175248 0.218586 0.175436 0.175248 0.131883 0.175436 0.132014 0.131883 0.0881721 0.132014 0.0882523 0.0881721 0.0441681 0.0882523 0.0442056 0.0441681 0 0.0442056 0 0 -0.0441681 0 -0.0442056 -0.0441681 -0.0881721 -0.0442056 -0.0882523 -0.0881721 -0.131883 -0.0882523 -0.132014 -0.131883 -0.175248 -0.132014 -0.175436 -0.175248 -0.218341 -0.175436 -0.218586 -0.218341 -0.261424 -0.218586 -0.261705 -0.261424 -0.304997 -0.261705 -0.305271 -0.304997 -0.349833 -0.305271 -0.350019 -0.349833 -0.39695 -0.350019 -0.39692 -0.39695 -0.447513 -0.39692 -0.447094 -0.447513 -0.50265 -0.447094 -0.501635 -0.50265 -0.563162 -0.501635 -0.56136 -0.563162 -0.629056 -0.56136 -0.626422 -0.629056 -0.698828 -0.626422 -0.69566 -0.698828 -0.768444 -0.69566 -0.765501 -0.768444 -0.830532 -0.765501 -0.828716 -0.830532 -0.87606 -0.828716 -0.875594 -0.87606 -0.90395 -0.875594 -0.904116 -0.90395 -0.932969 -0.904116 -0.933755 -0.932969 -0.981455 -0.933755 -0.983498 -0.981455 -1.04816 -0.983498 -1.0511 -1.04816 -1.12476 -1.0511 -1.12751 -1.12476 -1.20506 -1.12751 -1.20667 -1.20506 -1.28625 -1.20667 -1.28625 1.28625 1.20667 1.28625 1.20926 1.20667 1.12751 1.20926 1.13196 1.12751 1.0511 1.13196 1.05591 1.0511 0.983498 1.05591 0.986867 0.983498 0.933755 0.986867 0.93499 0.933755 0.904116 0.93499 0.90437 0.904116 0.875594 0.90437 0.874866 0.875594 0.828716 0.874866 0.825731 0.828716 0.765501 0.825731 0.760722 0.765501 0.69566 0.760722 0.690628 0.69566 0.626422 0.690628 0.622323 0.626422 0.56136 0.622323 0.558603 0.56136 0.501635 0.558603 0.500105 0.501635 0.447094 0.500105 0.446479 0.447094 0.39692 0.446479 0.396897 0.39692 0.350019 0.396897 0.35032 0.350019 0.305271 0.35032 0.305704 0.305271 0.261705 0.305704 0.262145 0.261705 0.218586 0.262145 0.218964 0.218586 0.175436 0.218964 0.175727 0.175436 0.132014 0.175727 0.132215 0.132014 0.0882523 0.132215 0.0883748 0.0882523 0.0442056 0.0883748 0.0442628 0.0442056 0 0.0442628 0 0 -0.0442056 0 -0.0442628 -0.0442056 -0.0882523 -0.0442628 -0.0883748 -0.0882523 -0.132014 -0.0883748 -0.132215 -0.132014 -0.175436 -0.132215 -0.175727 -0.175436 -0.218586 -0.175727 -0.218964 -0.218586 -0.261705 -0.218964 -0.262145 -0.261705 -0.305271 -0.262145 -0.305704 -0.305271 -0.350019 -0.305704 -0.35032 -0.350019 -0.39692 -0.35032 -0.396897 -0.39692 -0.447094 -0.396897 -0.446479 -0.447094 -0.501635 -0.446479 -0.500105 -0.501635 -0.56136 -0.500105 -0.558603 -0.56136 -0.626422 -0.558603 -0.622323 -0.626422 -0.69566 -0.622323 -0.690628 -0.69566 -0.765501 -0.690628 -0.760722 -0.765501 -0.828716 -0.760722 -0.825731 -0.828716 -0.875594 -0.825731 -0.874866 -0.875594 -0.904116 -0.874866 -0.90437 -0.904116 -0.933755 -0.90437 -0.93499 -0.933755 -0.983498 -0.93499 -0.986867 -0.983498 -1.0511 -0.986867 -1.05591 -1.0511 -1.12751 -1.05591 -1.13196 -1.12751 -1.20667 -1.13196 -1.20926 -1.20667 -1.28625 -1.20926 -1.28625 1.28625 1.20926 1.28625 1.21275 1.20926 1.13196 1.21275 1.13809 1.13196 1.05591 1.13809 1.06273 1.05591 0.986867 1.06273 0.991746 0.986867 0.93499 0.991746 0.936746 0.93499 0.90437 0.936746 0.904703 0.90437 0.874866 0.904703 0.873796 0.874866 0.825731 0.873796 0.821414 0.825731 0.760722 0.821414 0.754052 0.760722 0.690628 0.754052 0.68386 0.690628 0.622323 0.68386 0.616983 0.622323 0.558603 0.616983 0.5551 0.558603 0.500105 0.5551 0.49821 0.500105 0.446479 0.49821 0.445757 0.446479 0.396897 0.445757 0.39692 0.396897 0.35032 0.39692 0.350746 0.35032 0.305704 0.350746 0.306285 0.305704 0.262145 0.306285 0.262724 0.262145 0.218964 0.262724 0.219456 0.218964 0.175727 0.219456 0.176101 0.175727 0.132215 0.176101 0.132472 0.132215 0.0883748 0.132472 0.08853 0.0883748 0.0442628 0.08853 0.0443348 0.0442628 0 0.0443348 0 0 -0.0442628 0 -0.0443348 -0.0442628 -0.0883748 -0.0443348 -0.08853 -0.0883748 -0.132215 -0.08853 -0.132472 -0.132215 -0.175727 -0.132472 -0.176101 -0.175727 -0.218964 -0.176101 -0.219456 -0.218964 -0.262145 -0.219456 -0.262724 -0.262145 -0.305704 -0.262724 -0.306285 -0.305704 -0.35032 -0.306285 -0.350746 -0.35032 -0.396897 -0.350746 -0.39692 -0.396897 -0.446479 -0.39692 -0.445757 -0.446479 -0.500105 -0.445757 -0.49821 -0.500105 -0.558603 -0.49821 -0.5551 -0.558603 -0.622323 -0.5551 -0.616983 -0.622323 -0.690628 -0.616983 -0.68386 -0.690628 -0.760722 -0.68386 -0.754052 -0.760722 -0.825731 -0.754052 -0.821414 -0.825731 -0.874866 -0.821414 -0.873796 -0.874866 -0.90437 -0.873796 -0.904703 -0.90437 -0.93499 -0.904703 -0.936746 -0.93499 -0.986867 -0.936746 -0.991746 -0.986867 -1.05591 -0.991746 -1.06273 -1.05591 -1.13196 -1.06273 -1.13809 -1.13196 -1.20926 -1.13809 -1.21275 -1.20926 -1.28625 -1.21275 -1.28625 1.28625 1.21275 1.28625 1.21709 1.21275 1.13809 1.21709 1.14592 1.13809 1.06273 1.14592 1.07179 1.06273 0.991746 1.07179 0.99852 0.991746 0.936746 0.99852 0.939219 0.936746 0.904703 0.939219 0.905106 0.904703 0.873796 0.905106 0.872189 0.873796 0.821414 0.872189 0.815409 0.821414 0.754052 0.815409 0.745308 0.754052 0.68386 0.745308 0.675451 0.68386 0.616983 0.675451 0.61063 0.616983 0.5551 0.61063 0.551077 0.5551 0.49821 0.551077 0.496115 0.49821 0.445757 0.496115 0.44503 0.445757 0.39692 0.44503 0.397045 0.39692 0.350746 0.397045 0.351315 0.350746 0.306285 0.351315 0.307011 0.306285 0.262724 0.307011 0.263427 0.262724 0.219456 0.263427 0.220044 0.219456 0.176101 0.220044 0.17654 0.176101 0.132472 0.17654 0.132769 0.132472 0.08853 0.132769 0.0887076 0.08853 0.0443348 0.0887076 0.0444164 0.0443348 0 0.0444164 0 0 -0.0443348 0 -0.0444164 -0.0443348 -0.08853 -0.0444164 -0.0887076 -0.08853 -0.132472 -0.0887076 -0.132769 -0.132472 -0.176101 -0.132769 -0.17654 -0.176101 -0.219456 -0.17654 -0.220044 -0.219456 -0.262724 -0.220044 -0.263427 -0.262724 -0.306285 -0.263427 -0.307011 -0.306285 -0.350746 -0.307011 -0.351315 -0.350746 -0.39692 -0.351315 -0.397045 -0.39692 -0.445757 -0.397045 -0.44503 -0.445757 -0.49821 -0.44503 -0.496115 -0.49821 -0.5551 -0.496115 -0.551077 -0.5551 -0.616983 -0.551077 -0.61063 -0.616983 -0.68386 -0.61063 -0.675451 -0.68386 -0.754052 -0.675451 -0.745308 -0.754052 -0.821414 -0.745308 -0.815409 -0.821414 -0.873796 -0.815409 -0.872189 -0.873796 -0.904703 -0.872189 -0.905106 -0.904703 -0.936746 -0.905106 -0.939219 -0.936746 -0.991746 -0.939219 -0.99852 -0.991746 -1.06273 -0.99852 -1.07179 -1.06273 -1.13809 -1.07179 -1.14592 -1.13809 -1.21275 -1.14592 -1.21709 -1.21275 -1.28625 -1.21709 -1.28625 1.28625 1.21709 1.28625 1.22219 1.21709 1.14592 1.22219 1.15545 1.14592 1.07179 1.15545 1.08344 1.07179 0.99852 1.08344 1.0078 0.99852 0.939219 1.0078 0.942764 0.939219 0.905106 0.942764 0.905573 0.905106 0.872189 0.905573 0.869699 0.872189 0.815409 0.869699 0.807141 0.815409 0.745308 0.807141 0.734217 0.745308 0.675451 0.734217 0.665511 0.675451 0.61063 0.665511 0.603522 0.61063 0.551077 0.603522 0.546772 0.551077 0.496115 0.546772 0.493998 0.496115 0.44503 0.493998 0.444414 0.44503 0.397045 0.444414 0.397335 0.397045 0.351315 0.397335 0.352054 0.351315 0.307011 0.352054 0.307885 0.307011 0.263427 0.307885 0.264244 0.263427 0.220044 0.264244 0.220708 0.220044 0.17654 0.220708 0.177027 0.17654 0.132769 0.177027 0.133091 0.132769 0.0887076 0.133091 0.0888967 0.0887076 0.0444164 0.0888967 0.0445021 0.0444164 0 0.0445021 0 0 -0.0444164 0 -0.0445021 -0.0444164 -0.0887076 -0.0445021 -0.0888967 -0.0887076 -0.132769 -0.0888967 -0.133091 -0.132769 -0.17654 -0.133091 -0.177027 -0.17654 -0.220044 -0.177027 -0.220708 -0.220044 -0.263427 -0.220708 -0.264244 -0.263427 -0.307011 -0.264244 -0.307885 -0.307011 -0.351315 -0.307885 -0.352054 -0.351315 -0.397045 -0.352054 -0.397335 -0.397045 -0.44503 -0.397335 -0.444414 -0.44503 -0.496115 -0.444414 -0.493998 -0.496115 -0.551077 -0.493998 -0.546772 -0.551077 -0.61063 -0.546772 -0.603522 -0.61063 -0.675451 -0.603522 -0.665511 -0.675451 -0.745308 -0.665511 -0.734217 -0.745308 -0.815409 -0.734217 -0.807141 -0.815409 -0.872189 -0.807141 -0.869699 -0.872189 -0.905106 -0.869699 -0.905573 -0.905106 -0.939219 -0.905573 -0.942764 -0.939219 -0.99852 -0.942764 -1.0078 -0.99852 -1.07179 -1.0078 -1.08344 -1.07179 -1.14592 -1.08344 -1.15545 -1.14592 -1.21709 -1.15545 -1.22219 -1.21709 -1.28625 -1.22219 -1.28625 1.28625 1.22219 1.28625 1.22792 1.22219 1.15545 1.22792 1.16659 1.15545 1.08344 1.16659 1.09803 1.08344 1.0078 1.09803 1.02046 1.0078 0.942764 1.02046 0.947978 0.942764 0.905573 0.947978 0.906099 0.905573 0.869699 0.906099 0.865747 0.869699 0.807141 0.865747 0.795768 0.807141 0.734217 0.795768 0.72047 0.734217 0.665511 0.72047 0.654221 0.665511 0.603522 0.654221 0.595956 0.603522 0.546772 0.595956 0.542437 0.546772 0.493998 0.542437 0.49204 0.493998 0.444414 0.49204 0.444027 0.444414 0.397335 0.444027 0.397858 0.397335 0.352054 0.397858 0.352994 0.352054 0.307885 0.352994 0.308911 0.307885 0.264244 0.308911 0.265163 0.264244 0.220708 0.265163 0.221433 0.220708 0.177027 0.221433 0.177542 0.177027 0.133091 0.177542 0.133423 0.133091 0.0888967 0.133423 0.0890859 0.0888967 0.0445021 0.0890859 0.044586 0.0445021 0 0.044586 0 0 -0.0445021 0 -0.044586 -0.0445021 -0.0888967 -0.044586 -0.0890859 -0.0888967 -0.133091 -0.0890859 -0.133423 -0.133091 -0.177027 -0.133423 -0.177542 -0.177027 -0.220708 -0.177542 -0.221433 -0.220708 -0.264244 -0.221433 -0.265163 -0.264244 -0.307885 -0.265163 -0.308911 -0.307885 -0.352054 -0.308911 -0.352994 -0.352054 -0.397335 -0.352994 -0.397858 -0.397335 -0.444414 -0.397858 -0.444027 -0.444414 -0.493998 -0.444027 -0.49204 -0.493998 -0.546772 -0.49204 -0.542437 -0.546772 -0.603522 -0.542437 -0.595956 -0.603522 -0.665511 -0.595956 -0.654221 -0.665511 -0.734217 -0.654221 -0.72047 -0.734217 -0.807141 -0.72047 -0.795768 -0.807141 -0.869699 -0.795768 -0.865747 -0.869699 -0.905573 -0.865747 -0.906099 -0.905573 -0.942764 -0.906099 -0.947978 -0.942764 -1.0078 -0.947978 -1.02046 -1.0078 -1.08344 -1.02046 -1.09803 -1.08344 -1.15545 -1.09803 -1.16659 -1.15545 -1.22219 -1.16659 -1.22792 -1.22219 -1.28625 -1.22792 -1.28625 1.28625 1.22792 1.28625 1.23409 1.22792 1.16659 1.23409 1.17909 1.16659 1.09803 1.17909 1.11583 1.09803 1.02046 1.11583 1.0377 1.02046 0.947978 1.0377 0.955848 0.947978 0.906099 0.955848 0.906677 0.906099 0.865747 0.906677 0.859365 0.865747 0.795768 0.859365 0.780113 0.795768 0.72047 0.780113 0.703831 0.72047 0.654221 0.703831 0.641905 0.654221 0.595956 0.641905 0.588279 0.595956 0.542437 0.588279 0.53833 0.542437 0.49204 0.53833 0.490427 0.49204 0.444027 0.490427 0.443992 0.444027 0.397858 0.443992 0.398683 0.397858 0.352994 0.398683 0.354165 0.352994 0.308911 0.354165 0.310093 0.308911 0.265163 0.310093 0.266173 0.265163 0.221433 0.266173 0.222199 0.221433 0.177542 0.222199 0.178066 0.177542 0.133423 0.178066 0.133747 0.133423 0.0890859 0.133747 0.0892635 0.0890859 0.044586 0.0892635 0.0446621 0.044586 0 0.0446621 0 0 -0.044586 0 -0.0446621 -0.044586 -0.0890859 -0.0446621 -0.0892635 -0.0890859 -0.133423 -0.0892635 -0.133747 -0.133423 -0.177542 -0.133747 -0.178066 -0.177542 -0.221433 -0.178066 -0.222199 -0.221433 -0.265163 -0.222199 -0.266173 -0.265163 -0.308911 -0.266173 -0.310093 -0.308911 -0.352994 -0.310093 -0.354165 -0.352994 -0.397858 -0.354165 -0.398683 -0.397858 -0.444027 -0.398683 -0.443992 -0.444027 -0.49204 -0.443992 -0.490427 -0.49204 -0.542437 -0.490427 -0.53833 -0.542437 -0.595956 -0.53833 -0.588279 -0.595956 -0.654221 -0.588279 -0.641905 -0.654221 -0.72047 -0.641905 -0.703831 -0.72047 -0.795768 -0.703831 -0.780113 -0.795768 -0.865747 -0.780113 -0.859365 -0.865747 -0.906099 -0.859365 -0.906677 -0.906099 -0.947978 -0.906677 -0.955848 -0.947978 -1.02046 -0.955848 -1.0377 -1.02046 -1.09803 -1.0377 -1.11583 -1.09803 -1.16659 -1.11583 -1.17909 -1.16659 -1.22792 -1.17909 -1.23409 -1.22792 -1.28625 -1.23409 -1.28625 1.28625 1.23409 1.28625 1.24048 1.23409 1.17909 1.24048 1.19249 1.17909 1.11583 1.19249 1.13677 1.11583 1.0377 1.13677 1.06107 1.0377 0.955848 1.06107 0.968037 0.955848 0.906677 0.968037 0.907302 0.906677 0.859365 0.907302 0.848907 0.859365 0.780113 0.848907 0.758611 0.780113 0.703831 0.758611 0.684363 0.703831 0.641905 0.684363 0.629085 0.641905 0.588279 0.629085 0.580863 0.588279 0.53833 0.580863 0.534712 0.53833 0.490427 0.534712 0.489343 0.490427 0.443992 0.489343 0.444428 0.443992 0.398683 0.444428 0.39988 0.398683 0.354165 0.39988 0.355596 0.354165 0.310093 0.355596 0.311434 0.310093 0.266173 0.311434 0.26726 0.266173 0.222199 0.26726 0.222986 0.222199 0.178066 0.222986 0.178579 0.178066 0.133747 0.178579 0.134047 0.133747 0.0892635 0.134047 0.0894176 0.0892635 0.0446621 0.0894176 0.0447244 0.0446621 0 0.0447244 0 0 -0.0446621 0 -0.0447244 -0.0446621 -0.0892635 -0.0447244 -0.0894176 -0.0892635 -0.133747 -0.0894176 -0.134047 -0.133747 -0.178066 -0.134047 -0.178579 -0.178066 -0.222199 -0.178579 -0.222986 -0.222199 -0.266173 -0.222986 -0.26726 -0.266173 -0.310093 -0.26726 -0.311434 -0.310093 -0.354165 -0.311434 -0.355596 -0.354165 -0.398683 -0.355596 -0.39988 -0.398683 -0.443992 -0.39988 -0.444428 -0.443992 -0.490427 -0.444428 -0.489343 -0.490427 -0.53833 -0.489343 -0.534712 -0.53833 -0.588279 -0.534712 -0.580863 -0.588279 -0.641905 -0.580863 -0.629085 -0.641905 -0.703831 -0.629085 -0.684363 -0.703831 -0.780113 -0.684363 -0.758611 -0.780113 -0.859365 -0.758611 -0.848907 -0.859365 -0.906677 -0.848907 -0.907302 -0.906677 -0.955848 -0.907302 -0.968037 -0.955848 -1.0377 -0.968037 -1.06107 -1.0377 -1.11583 -1.06107 -1.13677 -1.11583 -1.17909 -1.13677 -1.19249 -1.17909 -1.23409 -1.19249 -1.24048 -1.23409 -1.28625 -1.24048 -1.28625 1.28625 1.24048 1.28625 1.24689 1.24048 1.19249 1.24689 1.20616 1.19249 1.13677 1.20616 1.16009 1.13677 1.06107 1.16009 1.09235 1.06107 0.968037 1.09235 0.987495 0.968037 0.907302 0.987495 0.907966 0.907302 0.848907 0.907966 0.831431 0.848907 0.758611 0.831431 0.729425 0.758611 0.684363 0.729425 0.662804 0.684363 0.629085 0.662804 0.616452 0.629085 0.580863 0.616452 0.574072 0.580863 0.534712 0.574072 0.53184 0.534712 0.489343 0.53184 0.488967 0.489343 0.444428 0.488967 0.445451 0.444428 0.39988 0.445451 0.401511 0.39988 0.355596 0.401511 0.357311 0.355596 0.311434 0.357311 0.312931 0.311434 0.26726 0.312931 0.268408 0.26726 0.222986 0.268408 0.223772 0.222986 0.178579 0.223772 0.179058 0.178579 0.134047 0.179058 0.134304 0.134047 0.0894176 0.134304 0.0895356 0.0894176 0.0447244 0.0895356 0.0447665 0.0447244 0 0.0447665 0 0 -0.0447244 0 -0.0447665 -0.0447244 -0.0894176 -0.0447665 -0.0895356 -0.0894176 -0.134047 -0.0895356 -0.134304 -0.134047 -0.178579 -0.134304 -0.179058 -0.178579 -0.222986 -0.179058 -0.223772 -0.222986 -0.26726 -0.223772 -0.268408 -0.26726 -0.311434 -0.268408 -0.312931 -0.311434 -0.355596 -0.312931 -0.357311 -0.355596 -0.39988 -0.357311 -0.401511 -0.39988 -0.444428 -0.401511 -0.445451 -0.444428 -0.489343 -0.445451 -0.488967 -0.489343 -0.534712 -0.488967 -0.53184 -0.534712 -0.580863 -0.53184 -0.574072 -0.580863 -0.629085 -0.574072 -0.616452 -0.629085 -0.684363 -0.616452 -0.662804 -0.684363 -0.758611 -0.662804 -0.729425 -0.758611 -0.848907 -0.729425 -0.831431 -0.848907 -0.907302 -0.831431 -0.907966 -0.907302 -0.968037 -0.907966 -0.987495 -0.968037 -1.06107 -0.987495 -1.09235 -1.06107 -1.13677 -1.09235 -1.16009 -1.13677 -1.19249 -1.16009 -1.20616 -1.19249 -1.24048 -1.20616 -1.24689 -1.24048 -1.28625 -1.24689 -1.28625 1.28625 1.24689 1.28625 1.25311 1.24689 1.20616 1.25311 1.21952 1.20616 1.16009 1.21952 1.18393 1.16009 1.09235 1.18393 1.13253 1.09235 0.987495 1.13253 1.02002 0.987495 0.907966 1.02002 0.908652 0.907966 0.831431 0.908652 0.801082 0.831431 0.729425 0.801082 0.691404 0.729425 0.662804 0.691404 0.640996 0.662804 0.616452 0.640996 0.604651 0.616452 0.574072 0.604651 0.568252 0.574072 0.53184 0.568252 0.529974 0.53184 0.488967 0.529974 0.489473 0.488967 0.445451 0.489473 0.447169 0.445451 0.401511 0.447169 0.403634 0.401511 0.357311 0.403634 0.359329 0.357311 0.312931 0.359329 0.314577 0.312931 0.268408 0.314577 0.269594 0.268408 0.223772 0.269594 0.22453 0.223772 0.179058 0.22453 0.179481 0.179058 0.134304 0.179481 0.1345 0.134304 0.0895356 0.1345 0.089605 0.0895356 0.0447665 0.089605 0.0447822 0.0447665 0 0.0447822 0 0 -0.0447665 0 -0.0447822 -0.0447665 -0.0895356 -0.0447822 -0.089605 -0.0895356 -0.134304 -0.089605 -0.1345 -0.134304 -0.179058 -0.1345 -0.179481 -0.179058 -0.223772 -0.179481 -0.22453 -0.223772 -0.268408 -0.22453 -0.269594 -0.268408 -0.312931 -0.269594 -0.314577 -0.312931 -0.357311 -0.314577 -0.359329 -0.357311 -0.401511 -0.359329 -0.403634 -0.401511 -0.445451 -0.403634 -0.447169 -0.445451 -0.488967 -0.447169 -0.489473 -0.488967 -0.53184 -0.489473 -0.529974 -0.53184 -0.574072 -0.529974 -0.568252 -0.574072 -0.616452 -0.568252 -0.604651 -0.616452 -0.662804 -0.604651 -0.640996 -0.662804 -0.729425 -0.640996 -0.691404 -0.729425 -0.831431 -0.691404 -0.801082 -0.831431 -0.907966 -0.801082 -0.908652 -0.907966 -0.987495 -0.908652 -1.02002 -0.987495 -1.09235 -1.02002 -1.13253 -1.09235 -1.16009 -1.13253 -1.18393 -1.16009 -1.20616 -1.18393 -1.21952 -1.20616 -1.24689 -1.21952 -1.25311 -1.24689 -1.28625 -1.25311 -1.28625 1.28625 1.25311 1.28625 1.25889 1.25311 1.21952 1.25889 1.23222 1.21952 1.18393 1.23222 1.20608 1.18393 1.13253 1.20608 1.17758 1.13253 1.02002 1.17758 1.07865 1.02002 0.908652 1.07865 0.909289 0.908652 0.801082 0.909289 0.744464 0.801082 0.691404 0.744464 0.648465 0.691404 0.640996 0.648465 0.621129 0.640996 0.604651 0.621129 0.594081 0.604651 0.568252 0.594081 0.563775 0.568252 0.529974 0.563775 0.529353 0.529974 0.489473 0.529353 0.49102 0.489473 0.447169 0.49102 0.449684 0.447169 0.403634 0.449684 0.406299 0.403634 0.359329 0.406299 0.36166 0.359329 0.314577 0.36166 0.316356 0.314577 0.269594 0.316356 0.270793 0.269594 0.22453 0.270793 