# vtk DataFile Version 3.0
#This file was generated by the deal.II library on 2017/9/27 at 13:18:00
ASCII
DATASET UNSTRUCTURED_GRID

POINTS 2688 double
-3.62221 -5.06917e-23 0
-3.4981 0 0
-3.62221 0.0996469 0
-3.49787 0.0977942 0
-3.4981 0 0
-3.37054 0 0
-3.49787 0.0977942 0
-3.37019 0.092246 0
-3.37054 0 0
-3.23535 0 0
-3.37019 0.092246 0
-3.23501 0.0833112 0
-3.23535 0 0
-3.08749 0 0
-3.23501 0.0833112 0
-3.08726 0.0723418 0
-3.08749 0 0
-2.92293 0 0
-3.08726 0.0723418 0
-2.92282 0.0623647 0
-2.92293 0 0
-2.74382 0 0
-2.92282 0.0623647 0
-2.74375 0.0573779 0
-2.74382 0 0
-2.56213 0 0
-2.74375 0.0573779 0
-2.56212 0.0596928 0
-2.56213 0 0
-2.39128 0 0
-2.56212 0.0596928 0
-2.39142 0.0674835 0
-2.39128 0 0
-2.23555 0 0
-2.39142 0.0674835 0
-2.23589 0.0768313 0
-2.23555 0 0
-2.0917 0 0
-2.23589 0.0768313 0
-2.09219 0.0845492 0
-2.0917 0 0
-1.95447 0 0
-2.09219 0.0845492 0
-1.95499 0.0892219 0
-1.95447 0 0
-1.81932 0 0
-1.95499 0.0892219 0
-1.81975 0.090786 0
-1.81932 0 0
-1.68289 0 0
-1.81975 0.090786 0
-1.68318 0.0898109 0
-1.68289 0 0
-1.54291 0 0
-1.68318 0.0898109 0
-1.54305 0.0870698 0
-1.54291 0 0
-1.39794 0 0
-1.54305 0.0870698 0
-1.39796 0.0833883 0
-1.39794 0 0
-1.24745 0 0
-1.39796 0.0833883 0
-1.24739 0.0796018 0
-1.24745 0 0
-1.09188 0 0
-1.24739 0.0796018 0
-1.09178 0.0764867 0
-1.09188 0 0
-0.932753 0 0
-1.09178 0.0764867 0
-0.932636 0.0746204 0
-0.932753 0 0
-0.772298 0 0
-0.932636 0.0746204 0
-0.772192 0.074223 0
-0.772298 0 0
-0.612784 0 0
-0.772192 0.074223 0
-0.612702 0.0750941 0
-0.612784 0 0
-0.455758 0 0
-0.612702 0.0750941 0
-0.455706 0.0767126 0
-0.455758 0 0
-0.301707 0 0
-0.455706 0.0767126 0
-0.301679 0.0784408 0
-0.301707 0 0
-0.150156 0 0
-0.301679 0.0784408 0
-0.150145 0.0797204 0
-0.150156 0 0
0 0 0
-0.150145 0.0797204 0
0 0.0801881 0
0 0 0
0.150156 3.10822e-24 0
0 0.0801881 0
0.150145 0.0797204 0
0.150156 3.10822e-24 0
0.301707 -1.31305e-24 0
0.150145 0.0797204 0
0.301679 0.0784408 0
0.301707 -1.31305e-24 0
0.455758 -1.13144e-23 0
0.301679 0.0784408 0
0.455706 0.0767126 0
0.455758 -1.13144e-23 0
0.612784 -1.29497e-23 0
0.455706 0.0767126 0
0.612702 0.0750941 0
0.612784 -1.29497e-23 0
0.772298 -2.93909e-23 0
0.612702 0.0750941 0
0.772192 0.074223 0
0.772298 -2.93909e-23 0
0.932753 4.817e-24 0
0.772192 0.074223 0
0.932636 0.0746204 0
0.932753 4.817e-24 0
1.09188 1.33615e-23 0
0.932636 0.0746204 0
1.09178 0.0764867 0
1.09188 1.33615e-23 0
1.24745 -1.74086e-24 0
1.09178 0.0764867 0
1.24739 0.0796018 0
1.24745 -1.74086e-24 0
1.39794 -3.30522e-23 0
1.24739 0.0796018 0
1.39796 0.0833883 0
1.39794 -3.30522e-23 0
1.54291 -7.12633e-24 0
1.39796 0.0833883 0
1.54305 0.0870698 0
1.54291 -7.12633e-24 0
1.68289 -3.02895e-23 0
1.54305 0.0870698 0
1.68318 0.0898109 0
1.68289 -3.02895e-23 0
1.81932 -1.09081e-23 0
1.68318 0.0898109 0
1.81975 0.090786 0
1.81932 -1.09081e-23 0
1.95447 4.0195e-23 0
1.81975 0.090786 0
1.95499 0.0892219 0
1.95447 4.0195e-23 0
2.0917 3.4344e-23 0
1.95499 0.0892219 0
2.09219 0.0845492 0
2.0917 3.4344e-23 0
2.23555 1.07169e-23 0
2.09219 0.0845492 0
2.23589 0.0768313 0
2.23555 1.07169e-23 0
2.39128 3.72576e-24 0
2.23589 0.0768313 0
2.39142 0.0674835 0
2.39128 3.72576e-24 0
2.56213 1.28875e-23 0
2.39142 0.0674835 0
2.56212 0.0596928 0
2.56213 1.28875e-23 0
2.74382 1.07155e-23 0
2.56212 0.0596928 0
2.74375 0.0573779 0
2.74382 1.07155e-23 0
2.92293 1.62461e-23 0
2.74375 0.0573779 0
2.92282 0.0623647 0
2.92293 1.62461e-23 0
3.08749 -6.73268e-25 0
2.92282 0.0623647 0
3.08726 0.0723418 0
3.08749 -6.73268e-25 0
3.23535 -2.35963e-23 0
3.08726 0.0723418 0
3.23501 0.0833112 0
3.23535 -2.35963e-23 0
3.37054 -3.8384e-23 0
3.23501 0.0833112 0
3.37019 0.092246 0
3.37054 -3.8384e-23 0
3.4981 2.64775e-23 0
3.37019 0.092246 0
3.49787 0.0977942 0
3.4981 2.64775e-23 0
3.62221 -5.06917e-23 0
3.49787 0.0977942 0
3.62221 0.0996469 0
-3.62221 0.0996469 0
-3.49787 0.0977942 0
-3.62221 0.196982 0
-3.49715 0.193518 0
-3.49787 0.0977942 0
-3.37019 0.092246 0
-3.49715 0.193518 0
-3.36904 0.183109 0
-3.37019 0.092246 0
-3.23501 0.0833112 0
-3.36904 0.183109 0
-3.23389 0.166233 0
-3.23501 0.0833112 0
-3.08726 0.0723418 0
-3.23389 0.166233 0
-3.08654 0.145306 0
-3.08726 0.0723418 0
-2.92282 0.0623647 0
-3.08654 0.145306 0
-2.92249 0.126047 0
-2.92282 0.0623647 0
-2.74375 0.0573779 0
-2.92249 0.126047 0
-2.74357 0.116343 0
-2.74375 0.0573779 0
-2.56212 0.0596928 0
-2.74357 0.116343 0
-2.56208 0.12091 0
-2.56212 0.0596928 0
-2.39142 0.0674835 0
-2.56208 0.12091 0
-2.39186 0.136047 0
-2.39142 0.0674835 0
-2.23589 0.0768313 0
-2.39186 0.136047 0
-2.23695 0.15398 0
-2.23589 0.0768313 0
-2.09219 0.0845492 0
-2.23695 0.15398 0
-2.09366 0.16862 0
-2.09219 0.0845492 0
-1.95499 0.0892219 0
-2.09366 0.16862 0
-1.95649 0.177398 0
-1.95499 0.0892219 0
-1.81975 0.090786 0
-1.95649 0.177398 0
-1.82096 0.180288 0
-1.81975 0.090786 0
-1.68318 0.0898109 0
-1.82096 0.180288 0
-1.68395 0.178399 0
-1.68318 0.0898109 0
-1.54305 0.0870698 0
-1.68395 0.178399 0
-1.54337 0.173187 0
-1.54305 0.0870698 0
-1.39796 0.0833883 0
-1.54337 0.173187 0
-1.39795 0.166196 0
-1.39796 0.0833883 0
-1.24739 0.0796018 0
-1.39795 0.166196 0
-1.24716 0.158998 0
-1.24739 0.0796018 0
-1.09178 0.0764867 0
-1.24716 0.158998 0
-1.09146 0.153071 0
-1.09178 0.0764867 0
-0.932636 0.0746204 0
-1.09146 0.153071 0
-0.932298 0.149527 0
-0.932636 0.0746204 0
-0.772192 0.074223 0
-0.932298 0.149527 0
-0.771896 0.148792 0
-0.772192 0.074223 0
-0.612702 0.0750941 0
-0.771896 0.148792 0
-0.612483 0.150481 0
-0.612702 0.0750941 0
-0.455706 0.0767126 0
-0.612483 0.150481 0
-0.455575 0.15359 0
-0.455706 0.0767126 0
-0.301679 0.0784408 0
-0.455575 0.15359 0
-0.30162 0.156896 0
-0.301679 0.0784408 0
-0.150145 0.0797204 0
-0.30162 0.156896 0
-0.150127 0.159338 0
-0.150145 0.0797204 0
0 0.0801881 0
-0.150127 0.159338 0
0 0.160229 0
0 0.0801881 0
0.150145 0.0797204 0
0 0.160229 0
0.150127 0.159338 0
0.150145 0.0797204 0
0.301679 0.0784408 0
0.150127 0.159338 0
0.30162 0.156896 0
0.301679 0.0784408 0
0.455706 0.0767126 0
0.30162 0.156896 0
0.455575 0.15359 0
0.455706 0.0767126 0
0.612702 0.0750941 0
0.455575 0.15359 0
0.612483 0.150481 0
0.612702 0.0750941 0
0.772192 0.074223 0
0.612483 0.150481 0
0.771896 0.148792 0
0.772192 0.074223 0
0.932636 0.0746204 0
0.771896 0.148792 0
0.932298 0.149527 0
0.932636 0.0746204 0
1.09178 0.0764867 0
0.932298 0.149527 0
1.09146 0.153071 0
1.09178 0.0764867 0
1.24739 0.0796018 0
1.09146 0.153071 0
1.24716 0.158998 0
1.24739 0.0796018 0
1.39796 0.0833883 0
1.24716 0.158998 0
1.39795 0.166196 0
1.39796 0.0833883 0
1.54305 0.0870698 0
1.39795 0.166196 0
1.54337 0.173187 0
1.54305 0.0870698 0
1.68318 0.0898109 0
1.54337 0.173187 0
1.68395 0.178399 0
1.68318 0.0898109 0
1.81975 0.090786 0
1.68395 0.178399 0
1.82096 0.180288 0
1.81975 0.090786 0
1.95499 0.0892219 0
1.82096 0.180288 0
1.95649 0.177398 0
1.95499 0.0892219 0
2.09219 0.0845492 0
1.95649 0.177398 0
2.09366 0.16862 0
2.09219 0.0845492 0
2.23589 0.0768313 0
2.09366 0.16862 0
2.23695 0.15398 0
2.23589 0.0768313 0
2.39142 0.0674835 0
2.23695 0.15398 0
2.39186 0.136047 0
2.39142 0.0674835 0
2.56212 0.0596928 0
2.39186 0.136047 0
2.56208 0.12091 0
2.56212 0.0596928 0
2.74375 0.0573779 0
2.56208 0.12091 0
2.74357 0.116343 0
2.74375 0.0573779 0
2.92282 0.0623647 0
2.74357 0.116343 0
2.92249 0.126047 0
2.92282 0.0623647 0
3.08726 0.0723418 0
2.92249 0.126047 0
3.08654 0.145306 0
3.08726 0.0723418 0
3.23501 0.0833112 0
3.08654 0.145306 0
3.23389 0.166233 0
3.23501 0.0833112 0
3.37019 0.092246 0
3.23389 0.166233 0
3.36904 0.183109 0
3.37019 0.092246 0
3.49787 0.0977942 0
3.36904 0.183109 0
3.49715 0.193518 0
3.49787 0.0977942 0
3.62221 0.0996469 0
3.49715 0.193518 0
3.62221 0.196982 0
-3.62221 0.196982 0
-3.49715 0.193518 0
-3.62221 0.292253 0
-3.4959 0.287413 0
-3.49715 0.193518 0
-3.36904 0.183109 0
-3.4959 0.287413 0
-3.36705 0.272804 0
-3.36904 0.183109 0
-3.23389 0.166233 0
-3.36705 0.272804 0
-3.23196 0.248903 0
-3.23389 0.166233 0
-3.08654 0.145306 0
-3.23196 0.248903 0
-3.08531 0.218864 0
-3.08654 0.145306 0
-2.92249 0.126047 0
-3.08531 0.218864 0
-2.92199 0.190806 0
-2.92249 0.126047 0
-2.74357 0.116343 0
-2.92199 0.190806 0
-2.74329 0.176531 0
-2.74357 0.116343 0
-2.56208 0.12091 0
-2.74329 0.176531 0
-2.562 0.183393 0
-2.56208 0.12091 0
-2.39186 0.136047 0
-2.562 0.183393 0
-2.39258 0.205636 0
-2.39186 0.136047 0
-2.23695 0.15398 0
-2.39258 0.205636 0
-2.23873 0.231552 0
-2.23695 0.15398 0
-2.09366 0.16862 0
-2.23873 0.231552 0
-2.0961 0.252385 0
-2.09366 0.16862 0
-1.95649 0.177398 0
-2.0961 0.252385 0
-1.95892 0.264708 0
-1.95649 0.177398 0
-1.82096 0.180288 0
-1.95892 0.264708 0
-1.82286 0.268664 0
-1.82096 0.180288 0
-1.68395 0.178399 0
-1.82286 0.268664 0
-1.6851 0.265887 0
-1.68395 0.178399 0
-1.54337 0.173187 0
-1.6851 0.265887 0
-1.54382 0.258426 0
-1.54337 0.173187 0
-1.39795 0.166196 0
-1.54382 0.258426 0
-1.39787 0.248445 0
-1.39795 0.166196 0
-1.24716 0.158998 0
-1.39787 0.248445 0
-1.24677 0.238161 0
-1.24716 0.158998 0
-1.09146 0.153071 0
-1.24677 0.238161 0
-1.09093 0.22969 0
-1.09146 0.153071 0
-0.932298 0.149527 0
-1.09093 0.22969 0
-0.93176 0.22464 0
-0.932298 0.149527 0
-0.771896 0.148792 0
-0.93176 0.22464 0
-0.771435 0.223639 0
-0.771896 0.148792 0
-0.612483 0.150481 0
-0.771435 0.223639 0
-0.612154 0.226122 0
-0.612483 0.150481 0
-0.455575 0.15359 0
-0.612154 0.226122 0
-0.45539 0.230628 0
-0.455575 0.15359 0
-0.30162 0.156896 0
-0.45539 0.230628 0
-0.301547 0.235392 0
-0.30162 0.156896 0
-0.150127 0.159338 0
-0.301547 0.235392 0
-0.150111 0.238898 0
-0.150127 0.159338 0
0 0.160229 0
-0.150111 0.238898 0
0 0.240175 0
0 0.160229 0
0.150127 0.159338 0
0 0.240175 0
0.150111 0.238898 0
0.150127 0.159338 0
0.30162 0.156896 0
0.150111 0.238898 0
0.301547 0.235392 0
0.30162 0.156896 0
0.455575 0.15359 0
0.301547 0.235392 0
0.45539 0.230628 0
0.455575 0.15359 0
0.612483 0.150481 0
0.45539 0.230628 0
0.612154 0.226122 0
0.612483 0.150481 0
0.771896 0.148792 0
0.612154 0.226122 0
0.771435 0.223639 0
0.771896 0.148792 0
0.932298 0.149527 0
0.771435 0.223639 0
[...]
POINT_DATA 2688
SCALARS x1_displacement double 1
LOOKUP_TABLE default
2.00986 1.8993 2.00986 1.89953 1.8993 1.79219 1.89953 1.79254 1.79219 1.69271 1.79254 1.69305 1.69271 1.6059 1.69305 1.60613 1.6059 1.53579 1.60613 1.5359 1.53579 1.48023 1.5359 1.4803 1.48023 1.42725 1.4803 1.42726 1.42725 1.36344 1.42726 1.3633 1.36344 1.2845 1.3633 1.28416 1.2845 1.19368 1.28416 1.19319 1.19368 1.09624 1.19319 1.09572 1.09624 0.996722 1.09572 0.99629 0.996722 0.898476 0.99629 0.898189 0.898476 0.803791 0.898189 0.803654 0.803791 0.714086 0.803654 0.714071 0.714086 0.62991 0.714071 0.629974 0.62991 0.550806 0.629974 0.550912 0.550806 0.475267 0.550912 0.475384 0.475267 0.401052 0.475384 0.401158 0.401052 0.325895 0.401158 0.325977 0.325895 0.248251 0.325977 0.248303 0.248251 0.167632 0.248303 0.16766 0.167632 0.084514 0.16766 0.0845245 0.084514 0 0.0845245 0 0 -0.084514 0 -0.0845245 -0.084514 -0.167632 -0.0845245 -0.16766 -0.167632 -0.248251 -0.16766 -0.248303 -0.248251 -0.325895 -0.248303 -0.325977 -0.325895 -0.401052 -0.325977 -0.401158 -0.401052 -0.475267 -0.401158 -0.475384 -0.475267 -0.550806 -0.475384 -0.550912 -0.550806 -0.62991 -0.550912 -0.629974 -0.62991 -0.714086 -0.629974 -0.714071 -0.714086 -0.803791 -0.714071 -0.803654 -0.803791 -0.898476 -0.803654 -0.898189 -0.898476 -0.996722 -0.898189 -0.99629 -0.996722 -1.09624 -0.99629 -1.09572 -1.09624 -1.19368 -1.09572 -1.19319 -1.19368 -1.2845 -1.19319 -1.28416 -1.2845 -1.36344 -1.28416 -1.3633 -1.36344 -1.42725 -1.3633 -1.42726 -1.42725 -1.48023 -1.42726 -1.4803 -1.48023 -1.53579 -1.4803 -1.5359 -1.53579 -1.6059 -1.5359 -1.60613 -1.6059 -1.69271 -1.60613 -1.69305 -1.69271 -1.79219 -1.69305 -1.79254 -1.79219 -1.8993 -1.79254 -1.89953 -1.8993 -2.00986 -1.89953 -2.00986 2.00986 1.89953 2.00986 1.90025 1.89953 1.79254 1.90025 1.79369 1.79254 1.69305 1.79369 1.69417 1.69305 1.60613 1.69417 1.60685 1.60613 1.5359 1.60685 1.53623 1.5359 1.4803 1.53623 1.48048 1.4803 1.42726 1.48048 1.4273 1.42726 1.3633 1.4273 1.36286 1.3633 1.28416 1.36286 1.2831 1.28416 1.19319 1.2831 1.19172 1.19319 1.09572 1.19172 1.09422 1.09572 0.99629 1.09422 0.995076 0.99629 0.898189 0.995076 0.897421 0.898189 0.803654 0.897421 0.803326 0.803654 0.714071 0.803326 0.714082 0.714071 0.629974 0.714082 0.630196 0.629974 0.550912 0.630196 0.551233 0.550912 0.475384 0.551233 0.475722 0.475384 0.401158 0.475722 0.401454 0.401158 0.325977 0.401454 0.326196 0.325977 0.248303 0.326196 0.248434 0.248303 0.16766 0.248434 0.167719 0.16766 0.0845245 0.167719 0.0845431 0.0845245 0 0.0845431 0 0 -0.0845245 0 -0.0845431 -0.0845245 -0.16766 -0.0845431 -0.167719 -0.16766 -0.248303 -0.167719 -0.248434 -0.248303 -0.325977 -0.248434 -0.326196 -0.325977 -0.401158 -0.326196 -0.401454 -0.401158 -0.475384 -0.401454 -0.475722 -0.475384 -0.550912 -0.475722 -0.551233 -0.550912 -0.629974 -0.551233 -0.630196 -0.629974 -0.714071 -0.630196 -0.714082 -0.714071 -0.803654 -0.714082 -0.803326 -0.803654 -0.898189 -0.803326 -0.897421 -0.898189 -0.99629 -0.897421 -0.995076 -0.99629 -1.09572 -0.995076 -1.09422 -1.09572 -1.19319 -1.09422 -1.19172 -1.19319 -1.28416 -1.19172 -1.2831 -1.28416 -1.3633 -1.2831 -1.36286 -1.3633 -1.42726 -1.36286 -1.4273 -1.42726 -1.4803 -1.4273 -1.48048 -1.4803 -1.5359 -1.48048 -1.53623 -1.5359 -1.60613 -1.53623 -1.60685 -1.60613 -1.69305 -1.60685 -1.69417 -1.69305 -1.79254 -1.69417 -1.79369 -1.79254 -1.89953 -1.79369 -1.90025 -1.89953 -2.00986 -1.90025 -2.00986 2.00986 1.90025 2.00986 1.9015 1.90025 1.79369 1.9015 1.79568 1.79369 1.69417 1.79568 1.6961 1.69417 1.60685 1.6961 1.60808 1.60685 1.53623 1.60808 1.53673 1.53623 1.48048 1.53673 1.48076 1.48048 1.4273 1.48076 1.42738 1.4273 1.36286 1.42738 1.36214 1.36286 1.2831 1.36214 1.28132 1.2831 1.19172 1.28132 1.18928 1.19172 1.09422 1.18928 1.09179 1.09422 0.995076 1.09179 0.993175 0.995076 0.897421 0.993175 0.896268 0.897421 0.803326 0.896268 0.802881 0.803326 0.714082 0.802881 0.714161 0.714082 0.630196 0.714161 0.630588 0.630196 0.551233 0.630588 0.551761 0.551233 0.475722 0.551761 0.47626 0.475722 0.401454 0.47626 0.401915 0.401454 0.326196 0.401915 0.326525 0.326196 0.248434 0.326525 0.248619 0.248434 0.167719 0.248619 0.167792 0.167719 0.0845431 0.167792 0.084559 0.0845431 0 0.084559 0 0 -0.0845431 0 -0.084559 -0.0845431 -0.167719 -0.084559 -0.167792 -0.167719 -0.248434 -0.167792 -0.248619 -0.248434 -0.326196 -0.248619 -0.326525 -0.326196 -0.401454 -0.326525 -0.401915 -0.401454 -0.475722 -0.401915 -0.47626 -0.475722 -0.551233 -0.47626 -0.551761 -0.551233 -0.630196 -0.551761 -0.630588 -0.630196 -0.714082 -0.630588 -0.714161 -0.714082 -0.803326 -0.714161 -0.802881 -0.803326 -0.897421 -0.802881 -0.896268 -0.897421 -0.995076 -0.896268 -0.993175 -0.995076 -1.09422 -0.993175 -1.09179 -1.09422 -1.19172 -1.09179 -1.18928 -1.19172 -1.2831 -1.18928 -1.28132 -1.2831 -1.36286 -1.28132 -1.36214 -1.36286 -1.4273 -1.36214 -1.42738 -1.4273 -1.48048 -1.42738 -1.48076 -1.48048 -1.53623 -1.48076 -1.53673 -1.53623 -1.60685 -1.53673 -1.60808 -1.60685 -1.69417 -1.60808 -1.6961 -1.69417 -1.79369 -1.6961 -1.79568 -1.79369 -1.90025 -1.79568 -1.9015 -1.90025 -2.00986 -1.9015 -2.00986 2.00986 1.9015 2.00986 1.90334 1.9015 1.79568 1.90334 1.79865 1.79568 1.6961 1.79865 1.69901 1.6961 1.60808 1.69901 1.60992 1.60808 1.53673 1.60992 1.53745 1.53673 1.48076 1.53745 1.48113 1.48076 1.42738 1.48113 1.42747 1.42738 1.36214 1.42747 1.36104 1.36214 1.28132 1.36104 1.27871 1.28132 1.18928 1.27871 1.18583 1.18928 1.09179 1.18583 1.08846 1.09179 0.993175 1.08846 0.990679 0.993175 0.896268 0.990679 0.894844 0.896268 0.802881 0.894844 0.802423 0.802881 0.714161 0.802423 0.714388 0.714161 0.630588 0.714388 0.631195 0.630588 0.551761 0.631195 0.55251 0.551761 0.47626 0.55251 0.476988 0.47626 0.401915 0.476988 0.402513 0.401915 0.326525 0.402513 0.326925 0.326525 0.248619 0.326925 0.248815 0.248619 0.167792 0.248815 0.167842 0.167792 0.084559 0.167842 0.084552 0.084559 0 0.084552 0 0 -0.084559 0 -0.084552 -0.084559 -0.167792 -0.084552 -0.167842 -0.167792 -0.248619 -0.167842 -0.248815 -0.248619 -0.326525 -0.248815 -0.326925 -0.326525 -0.401915 -0.326925 -0.402513 -0.401915 -0.47626 -0.402513 -0.476988 -0.47626 -0.551761 -0.476988 -0.55251 -0.551761 -0.630588 -0.55251 -0.631195 -0.630588 -0.714161 -0.631195 -0.714388 -0.714161 -0.802881 -0.714388 -0.802423 -0.802881 -0.896268 -0.802423 -0.894844 -0.896268 -0.993175 -0.894844 -0.990679 -0.993175 -1.09179 -0.990679 -1.08846 -1.09179 -1.18928 -1.08846 -1.18583 -1.18928 -1.28132 -1.18583 -1.27871 -1.28132 -1.36214 -1.27871 -1.36104 -1.36214 -1.42738 -1.36104 -1.42747 -1.42738 -1.48076 -1.42747 -1.48113 -1.48076 -1.53673 -1.48113 -1.53745 -1.53673 -1.60808 -1.53745 -1.60992 -1.60808 -1.6961 -1.60992 -1.69901 -1.6961 -1.79568 -1.69901 -1.79865 -1.79568 -1.9015 -1.79865 -1.90334 -1.9015 -2.00986 -1.90334 -2.00986 2.00986 1.90334 2.00986 1.90587 1.90334 1.79865 1.90587 1.80279 1.79865 1.69901 1.80279 1.70317 1.69901 1.60992 1.70317 1.61262 1.60992 1.53745 1.61262 1.53848 1.53745 1.48113 1.53848 1.4816 1.48113 1.42747 1.4816 1.4275 1.42747 1.36104 1.4275 1.35937 1.36104 1.27871 1.35937 1.27508 1.27871 1.18583 1.27508 1.18125 1.18583 1.08846 1.18125 1.08425 1.08846 0.990679 1.08425 0.98768 0.990679 0.894844 0.98768 0.89328 0.894844 0.802423 0.89328 0.802083 0.802423 0.714388 0.802083 0.714869 0.714388 0.631195 0.714869 0.632092 0.631195 0.55251 0.632092 0.553515 0.55251 0.476988 0.553515 0.477906 0.476988 0.402513 0.477906 0.403216 0.402513 0.326925 0.403216 0.327344 0.326925 0.248815 0.327344 0.248964 0.248815 0.167842 0.248964 0.16782 0.167842 0.084552 0.16782 0.0844936 0.084552 0 0.0844936 0 0 -0.084552 0 -0.0844936 -0.084552 -0.167842 -0.0844936 -0.16782 -0.167842 -0.248815 -0.16782 -0.248964 -0.248815 -0.326925 -0.248964 -0.327344 -0.326925 -0.402513 -0.327344 -0.403216 -0.402513 -0.476988 -0.403216 -0.477906 -0.476988 -0.55251 -0.477906 -0.553515 -0.55251 -0.631195 -0.553515 -0.632092 -0.631195 -0.714388 -0.632092 -0.714869 -0.714388 -0.802423 -0.714869 -0.802083 -0.802423 -0.894844 -0.802083 -0.89328 -0.894844 -0.990679 -0.89328 -0.98768 -0.990679 -1.08846 -0.98768 -1.08425 -1.08846 -1.18583 -1.08425 -1.18125 -1.18583 -1.27871 -1.18125 -1.27508 -1.27871 -1.36104 -1.27508 -1.35937 -1.36104 -1.42747 -1.35937 -1.4275 -1.42747 -1.48113 -1.4275 -1.4816 -1.48113 -1.53745 -1.4816 -1.53848 -1.53745 -1.60992 -1.53848 -1.61262 -1.60992 -1.69901 -1.61262 -1.70317 -1.69901 -1.79865 -1.70317 -1.80279 -1.79865 -1.90334 -1.80279 -1.90587 -1.90334 -2.00986 -1.90587 -2.00986 2.00986 1.90587 2.00986 1.90918 1.90587 1.80279 1.90918 1.80834 1.80279 1.70317 1.80834 1.70894 1.70317 1.61262 1.70894 1.61652 1.61262 1.53848 1.61652 1.54 1.53848 1.4816 1.54 1.48218 1.4816 1.4275 1.48218 1.42734 1.4275 1.35937 1.42734 1.35687 1.35937 1.27508 1.35687 1.27011 1.27508 1.18125 1.27011 1.17537 1.18125 1.08425 1.17537 1.07915 1.08425 0.98768 1.07915 0.984286 0.98768 0.89328 0.984286 0.891727 0.89328 0.802083 0.891727 0.802018 0.802083 0.714869 0.802018 0.715743 0.714869 0.632092 0.715743 0.633378 0.632092 0.553515 0.633378 0.554831 0.553515 0.477906 0.554831 0.479017 0.477906 0.403216 0.479017 0.403988 0.403216 0.327344 0.403988 0.327719 0.327344 0.248964 0.327719 0.248992 0.248964 0.16782 0.248992 0.167662 0.16782 0.0844936 0.167662 0.0843474 0.0844936 0 0.0843474 0 0 -0.0844936 0 -0.0843474 -0.0844936 -0.16782 -0.0843474 -0.167662 -0.16782 -0.248964 -0.167662 -0.248992 -0.248964 -0.327344 -0.248992 -0.327719 -0.327344 -0.403216 -0.327719 -0.403988 -0.403216 -0.477906 -0.403988 -0.479017 -0.477906 -0.553515 -0.479017 -0.554831 -0.553515 -0.632092 -0.554831 -0.633378 -0.632092 -0.714869 -0.633378 -0.715743 -0.714869 -0.802083 -0.715743 -0.802018 -0.802083 -0.89328 -0.802018 -0.891727 -0.89328 -0.98768 -0.891727 -0.984286 -0.98768 -1.08425 -0.984286 -1.07915 -1.08425 -1.18125 -1.07915 -1.17537 -1.18125 -1.27508 -1.17537 -1.27011 -1.27508 -1.35937 -1.27011 -1.35687 -1.35937 -1.4275 -1.35687 -1.42734 -1.4275 -1.4816 -1.42734 -1.48218 -1.4816 -1.53848 -1.48218 -1.54 -1.53848 -1.61262 -1.54 -1.61652 -1.61262 -1.70317 -1.61652 -1.70894 -1.70317 -1.80279 -1.70894 -1.80834 -1.80279 -1.90587 -1.80834 -1.90918 -1.90587 -2.00986 -1.90918 -2.00986 2.00986 1.90918 2.00986 1.91338 1.90918 1.80834 1.91338 1.81555 1.80834 1.70894 1.81555 1.71677 1.70894 1.61652 1.71677 1.62209 1.61652 1.54 1.62209 1.54224 1.54 1.48218 1.54224 1.48287 1.48218 1.42734 1.48287 1.42681 1.42734 1.35687 1.42681 1.35312 1.35687 1.27011 1.35312 1.26342 1.27011 1.17537 1.26342 1.16801 1.17537 1.07915 1.16801 1.07318 1.07915 0.984286 1.07318 0.980625 0.984286 0.891727 0.980625 0.89036 0.891727 0.802018 0.89036 0.802409 0.802018 0.715743 0.802409 0.71717 0.715743 0.633378 0.71717 0.635175 0.633378 0.554831 0.635175 0.556524 0.554831 0.479017 0.556524 0.480333 0.479017 0.403988 0.480333 0.404785 0.403988 0.327719 0.404785 0.327968 0.327719 0.248992 0.327968 0.248806 0.248992 0.167662 0.248806 0.167288 0.167662 0.0843474 0.167288 0.0840689 0.0843474 0 0.0840689 0 0 -0.0843474 0 -0.0840689 -0.0843474 -0.167662 -0.0840689 -0.167288 -0.167662 -0.248992 -0.167288 -0.248806 -0.248992 -0.327719 -0.248806 -0.327968 -0.327719 -0.403988 -0.327968 -0.404785 -0.403988 -0.479017 -0.404785 -0.480333 -0.479017 -0.554831 -0.480333 -0.556524 -0.554831 -0.633378 -0.556524 -0.635175 -0.633378 -0.715743 -0.635175 -0.71717 -0.715743 -0.802018 -0.71717 -0.802409 -0.802018 -0.891727 -0.802409 -0.89036 -0.891727 -0.984286 -0.89036 -0.980625 -0.984286 -1.07915 -0.980625 -1.07318 -1.07915 -1.17537 -1.07318 -1.16801 -1.17537 -1.27011 -1.16801 -1.26342 -1.27011 -1.35687 -1.26342 -1.35312 -1.35687 -1.42734 -1.35312 -1.42681 -1.42734 -1.48218 -1.42681 -1.48287 -1.48218 -1.54 -1.48287 -1.54224 -1.54 -1.61652 -1.54224 -1.62209 -1.61652 -1.70894 -1.62209 -1.71677 -1.70894 -1.80834 -1.71677 -1.81555 -1.80834 -1.90918 -1.81555 -1.91338 -1.90918 -2.00986 -1.91338 -2.00986 2.00986 1.91338 2.00986 1.91849 1.91338 1.81555 1.91849 1.82466 1.81555 1.71677 1.82466 1.72718 1.71677 1.62209 1.72718 1.62999 1.62209 1.54224 1.62999 1.54558 1.54224 1.48287 1.54558 1.4837 1.48287 1.42681 1.4837 1.42563 1.42681 1.35312 1.42563 1.34754 1.35312 1.26342 1.34754 1.25449 1.26342 1.16801 1.25449 1.15897 1.16801 1.07318 1.15897 1.06639 1.07318 0.980625 1.06639 0.976857 0.980625 0.89036 0.976857 0.889372 0.89036 0.802409 0.889372 0.803457 0.802409 0.71717 0.803457 0.719339 0.71717 0.635175 0.719339 0.637632 0.635175 0.556524 0.637632 0.558679 0.556524 0.480333 0.558679 0.481863 0.480333 0.404785 0.481863 0.405552 0.404785 0.327968 0.405552 0.327988 0.327968 0.248806 0.327988 0.24829 0.248806 0.167288 0.24829 0.166605 0.167288 0.0840689 0.166605 0.0836061 0.0840689 0 0.0836061 0 0 -0.0840689 0 -0.0836061 -0.0840689 -0.167288 -0.0836061 -0.166605 -0.167288 -0.248806 -0.166605 -0.24829 -0.248806 -0.327968 -0.24829 -0.327988 -0.327968 -0.404785 -0.327988 -0.405552 -0.404785 -0.480333 -0.405552 -0.481863 -0.480333 -0.556524 -0.481863 -0.558679 -0.556524 -0.635175 -0.558679 -0.637632 -0.635175 -0.71717 -0.637632 -0.719339 -0.71717 -0.802409 -0.719339 -0.803457 -0.802409 -0.89036 -0.803457 -0.889372 -0.89036 -0.980625 -0.889372 -0.976857 -0.980625 -1.07318 -0.976857 -1.06639 -1.07318 -1.16801 -1.06639 -1.15897 -1.16801 -1.26342 -1.15897 -1.25449 -1.26342 -1.35312 -1.25449 -1.34754 -1.35312 -1.42681 -1.34754 -1.42563 -1.42681 -1.48287 -1.42563 -1.4837 -1.48287 -1.54224 -1.4837 -1.54558 -1.54224 -1.62209 -1.54558 -1.62999 -1.62209 -1.71677 -1.62999 -1.72718 -1.71677 -1.81555 -1.72718 -1.82466 -1.81555 -1.91338 -1.82466 -1.91849 -1.91338 -2.00986 -1.91849 -2.00986 2.00986 1.91849 2.00986 1.92452 1.91849 1.82466 1.92452 1.83579 1.82466 1.72718 1.83579 1.74072 1.72718 1.62999 1.74072 1.64107 1.62999 1.54558 1.64107 1.55057 1.54558 1.4837 1.55057 1.48471 1.4837 1.42563 1.48471 1.42337 1.42563 1.34754 1.42337 1.33933 1.34754 1.25449 1.33933 1.24277 1.25449 1.15897 1.24277 1.14813 1.15897 1.06639 1.14813 1.05889 1.06639 0.976857 1.05889 0.973174 0.976857 0.889372 0.973174 0.888977 0.889372 0.803457 0.888977 0.805383 0.803457 0.719339 0.805383 0.722464 0.719339 0.637632 0.722464 0.640925 0.637632 0.558679 0.640925 0.561402 0.558679 0.481863 0.561402 0.483622 0.481863 0.405552 0.483622 0.406215 0.405552 0.327988 0.406215 0.327653 0.327988 0.24829 0.327653 0.247305 0.24829 0.166605 0.247305 0.165501 0.166605 0.0836061 0.165501 0.0828992 0.0836061 0 0.0828992 0 0 -0.0836061 0 -0.0828992 -0.0836061 -0.166605 -0.0828992 -0.165501 -0.166605 -0.24829 -0.165501 -0.247305 -0.24829 -0.327988 -0.247305 -0.327653 -0.327988 -0.405552 -0.327653 -0.406215 -0.405552 -0.481863 -0.406215 -0.483622 -0.481863 -0.558679 -0.483622 -0.561402 -0.558679 -0.637632 -0.561402 -0.640925 -0.637632 -0.719339 -0.640925 -0.722464 -0.719339 -0.803457 -0.722464 -0.805383 -0.803457 -0.889372 -0.805383 -0.888977 -0.889372 -0.976857 -0.888977 -0.973174 -0.976857 -1.06639 -0.973174 -1.05889 -1.06639 -1.15897 -1.05889 -1.14813 -1.15897 -1.25449 -1.14813 -1.24277 -1.25449 -1.34754 -1.24277 -1.33933 -1.34754 -1.42563 -1.33933 -1.42337 -1.42563 -1.4837 -1.42337 -1.48471 -1.4837 -1.54558 -1.48471 -1.55057 -1.54558 -1.62999 -1.55057 -1.64107 -1.62999 -1.72718 -1.64107 -1.74072 -1.72718 -1.82466 -1.74072 -1.83579 -1.82466 -1.91849 -1.83579 -1.92452 -1.91849 -2.00986 -1.92452 -2.00986 2.00986 1.92452 2.00986 1.93136 1.92452 1.83579 1.93136 1.84893 1.83579 1.74072 1.84893 1.7579 1.74072 1.64107 1.7579 1.65649 1.64107 1.55057 1.65649 1.55808 1.55057 1.48471 1.55808 1.48595 1.48471 1.42337 1.48595 1.41931 1.42337 1.33933 1.41931 1.32735 1.33933 1.24277 1.32735 1.22764 1.24277 1.14813 1.22764 1.1355 1.14813 1.05889 1.1355 1.0509 1.05889 0.973174 1.0509 0.969797 0.973174 0.888977 0.969797 0.8894 0.888977 0.805383 0.8894 0.808424 0.805383 0.722464 0.808424 0.726785 0.722464 0.640925 0.726785 0.645263 0.640925 0.561402 0.645263 0.564821 0.561402 0.483622 0.564821 0.485622 0.483622 0.406215 0.485622 0.406677 0.406215 0.327653 0.406677 0.326795 0.327653 0.247305 0.326795 0.245679 0.247305 0.165501 0.245679 0.163847 0.165501 0.0828992 0.163847 0.0818825 0.0828992 0 0.0818825 0 0 -0.0828992 0 -0.0818825 -0.0828992 -0.165501 -0.0818825 -0.163847 -0.165501 -0.247305 -0.163847 -0.245679 -0.247305 -0.327653 -0.245679 -0.326795 -0.327653 -0.406215 -0.326795 -0.406677 -0.406215 -0.483622 -0.406677 -0.485622 -0.483622 -0.561402 -0.485622 -0.564821 -0.561402 -0.640925 -0.564821 -0.645263 -0.640925 -0.722464 -0.645263 -0.726785 -0.722464 -0.805383 -0.726785 -0.808424 -0.805383 -0.888977 -0.808424 -0.8894 -0.888977 -0.973174 -0.8894 -0.969797 -0.973174 -1.05889 -0.969797 -1.0509 -1.05889 -1.14813 -1.0509 -1.1355 -1.14813 -1.24277 -1.1355 -1.22764 -1.24277 -1.33933 -1.22764 -1.32735 -1.33933 -1.42337 -1.32735 -1.41931 -1.42337 -1.48471 -1.41931 -1.48595 -1.48471 -1.55057 -1.48595 -1.55808 -1.55057 -1.64107 -1.55808 -1.65649 -1.64107 -1.74072 -1.65649 -1.7579 -1.74072 -1.83579 -1.7579 -1.84893 -1.83579 -1.92452 -1.84893 -1.93136 -1.92452 -2.00986 -1.93136 -2.00986 2.00986 1.93136 2.00986 1.93888 1.93136 1.84893 1.93888 1.86383 1.84893 1.7579 1.86383 1.77897 1.7579 1.65649 1.77897 1.67773 1.65649 1.55808 1.67773 1.56955 1.55808 1.48595 1.56955 1.48751 1.48595 1.41931 1.48751 1.41226 1.41931 1.32735 1.41226 1.31 1.32735 1.22764 1.31 1.20865 1.22764 1.1355 1.20865 1.12131 1.1355 1.0509 1.12131 1.04268 1.0509 0.969797 1.04268 0.966962 0.969797 0.8894 0.966962 0.890868 0.8894 0.808424 0.890868 0.812825 0.808424 0.726785 0.812825 0.732572 0.726785 0.645263 0.732572 0.650902 0.645263 0.564821 0.650902 0.5691 0.564821 0.485622 0.5691 0.487876 0.485622 0.406677 0.487876 0.406804 0.406677 0.326795 0.406804 0.325202 0.326795 0.245679 0.325202 0.243207 0.245679 0.163847 0.243207 0.161499 0.163847 0.0818825 0.161499 0.0804861 0.0818825 0 0.0804861 0 0 -0.0818825 0 -0.0804861 -0.0818825 -0.163847 -0.0804861 -0.161499 -0.163847 -0.245679 -0.161499 -0.243207 -0.245679 -0.326795 -0.243207 -0.325202 -0.326795 -0.406677 -0.325202 -0.406804 -0.406677 -0.485622 -0.406804 -0.487876 -0.485622 -0.564821 -0.487876 -0.5691 -0.564821 -0.645263 -0.5691 -0.650902 -0.645263 -0.726785 -0.650902 -0.732572 -0.726785 -0.808424 -0.732572 -0.812825 -0.808424 -0.8894 -0.812825 -0.890868 -0.8894 -0.969797 -0.890868 -0.966962 -0.969797 -1.0509 -0.966962 -1.04268 -1.0509 -1.1355 -1.04268 -1.12131 -1.1355 -1.22764 -1.12131 -1.20865 -1.22764 -1.32735 -1.20865 -1.31 -1.32735 -1.41931 -1.31 -1.41226 -1.41931 -1.48595 -1.41226 -1.48751 -1.48595 -1.55808 -1.48751 -1.56955 -1.55808 -1.65649 -1.56955 -1.67773 -1.65649 -1.7579 -1.67773 -1.77897 -1.7579 -1.84893 -1.77897 -1.86383 -1.84893 -1.93136 -1.86383 -1.93888 -1.93136 -2.00986 -1.93888 -2.00986 2.00986 1.93888 2.00986 1.9469 1.93888 1.86383 1.9469 1.88005 1.86383 1.77897 1.88005 1.8036 1.77897 1.67773 1.8036 1.70655 1.67773 1.56955 1.70655 1.58745 1.56955 1.48751 1.58745 1.4896 1.48751 1.41226 1.4896 1.39999 1.41226 1.31 1.39999 1.28516 1.31 1.20865 1.28516 1.18585 1.20865 1.12131 1.18585 1.10603 1.12131 1.04268 1.10603 1.03454 1.04268 0.966962 1.03454 0.964918 0.966962 0.890868 0.964918 0.893606 0.890868 0.812825 0.893606 0.818833 0.812825 0.732572 0.818833 0.740121 0.732572 0.650902 0.740121 0.658154 0.650902 0.5691 0.658154 0.574454 0.5691 0.487876 0.574454 0.490399 0.487876 0.406804 0.490399 0.406406 0.406804 0.325202 0.406406 0.322592 0.325202 0.243207 0.322592 0.239641 0.243207 0.161499 0.239641 0.158302 0.161499 0.0804861 0.158302 0.0786401 0.0804861 0 0.0786401 0 0 -0.0804861 0 -0.0786401 -0.0804861 -0.161499 -0.0786401 -0.158302 -0.161499 -0.243207 -0.158302 -0.239641 -0.243207 -0.325202 -0.239641 -0.322592 -0.325202 -0.406804 -0.322592 -0.406406 -0.406804 -0.487876 -0.406406 -0.490399 -0.487876 -0.5691 -0.490399 -0.574454 -0.5691 -0.650902 -0.574454 -0.658154 -0.650902 -0.732572 -0.658154 -0.740121 -0.732572 -0.812825 -0.740121 -0.818833 -0.812825 -0.890868 -0.818833 -0.893606 -0.890868 -0.966962 -0.893606 -0.964918 -0.966962 -1.04268 -0.964918 -1.03454 -1.04268 -1.12131 -1.03454 -1.10603 -1.12131 -1.20865 -1.10603 -1.18585 -1.20865 -1.31 -1.18585 -1.28516 -