# vtk DataFile Version 3.0
#This file was generated by the deal.II library on 2017/9/27 at 13:18:47
ASCII
DATASET UNSTRUCTURED_GRID

POINTS 2688 double
-4.33983 -9.32233e-23 0
-4.18514 0 0
-4.33983 0.0941825 0
-4.18464 0.0931186 0
-4.18514 0 0
-4.02933 0 0
-4.18464 0.0931186 0
-4.02849 0.0895222 0
-4.02933 0 0
-3.86949 0 0
-4.02849 0.0895222 0
-3.86861 0.0824905 0
-3.86949 0 0
-3.69976 0 0
-3.86861 0.0824905 0
-3.69915 0.0718473 0
-3.69976 0 0
-3.51277 0 0
-3.69915 0.0718473 0
-3.51253 0.0603581 0
-3.51277 0 0
-3.30808 0 0
-3.51253 0.0603581 0
-3.30802 0.054507 0
-3.30808 0 0
-3.10241 0 0
-3.30802 0.054507 0
-3.10255 0.0592216 0
-3.10241 0 0
-2.9128 0 0
-3.10255 0.0592216 0
-2.91333 0.0694506 0
-2.9128 0 0
-2.73885 0 0
-2.91333 0.0694506 0
-2.73974 0.0785786 0
-2.73885 0 0
-2.57255 0 0
-2.73974 0.0785786 0
-2.57353 0.0838047 0
-2.57255 0 0
-2.40693 0 0
-2.57353 0.0838047 0
-2.40777 0.0854446 0
-2.40693 0 0
-2.23799 0 0
-2.40777 0.0854446 0
-2.23858 0.0848015 0
-2.23799 0 0
-2.06413 0 0
-2.23858 0.0848015 0
-2.06446 0.0830473 0
-2.06413 0 0
-1.88526 0 0
-2.06446 0.0830473 0
-1.8854 0.0809707 0
-1.88526 0 0
-1.7021 0 0
-1.8854 0.0809707 0
-1.70211 0.0790337 0
-1.7021 0 0
-1.51573 0 0
-1.70211 0.0790337 0
-1.51566 0.0774685 0
-1.51573 0 0
-1.32722 0 0
-1.51566 0.0774685 0
-1.32713 0.0763506 0
-1.32722 0 0
-1.13756 0 0
-1.32713 0.0763506 0
-1.13747 0.0756538 0
-1.13756 0 0
-0.947459 0 0
-1.13747 0.0756538 0
-0.947378 0.0752956 0
-0.947459 0 0
-0.757392 0 0
-0.947378 0.0752956 0
-0.757329 0.0751731 0
-0.757392 0 0
-0.567603 0 0
-0.757329 0.0751731 0
-0.567559 0.0751868 0
-0.567603 0 0
-0.378156 0 0
-0.567559 0.0751868 0
-0.37813 0.075255 0
-0.378156 0 0
-0.188998 0 0
-0.37813 0.075255 0
-0.188986 0.075319 0
-0.188998 0 0
0 0 0
-0.188986 0.075319 0
0 0.0753441 0
0 0 0
0.188998 7.75893e-24 0
0 0.0753441 0
0.188986 0.075319 0
0.188998 7.75893e-24 0
0.378156 2.57377e-23 0
0.188986 0.075319 0
0.37813 0.075255 0
0.378156 2.57377e-23 0
0.567603 -5.01955e-23 0
0.37813 0.075255 0
0.567559 0.0751868 0
0.567603 -5.01955e-23 0
0.757392 -2.15569e-23 0
0.567559 0.0751868 0
0.757329 0.0751731 0
0.757392 -2.15569e-23 0
0.947459 -5.80194e-23 0
0.757329 0.0751731 0
0.947378 0.0752956 0
0.947459 -5.80194e-23 0
1.13756 2.88124e-23 0
0.947378 0.0752956 0
1.13747 0.0756538 0
1.13756 2.88124e-23 0
1.32722 3.22291e-23 0
1.13747 0.0756538 0
1.32713 0.0763506 0
1.32722 3.22291e-23 0
1.51573 1.91363e-23 0
1.32713 0.0763506 0
1.51566 0.0774685 0
1.51573 1.91363e-23 0
1.7021 -6.56174e-23 0
1.51566 0.0774685 0
1.70211 0.0790337 0
1.7021 -6.56174e-23 0
1.88526 -3.72584e-23 0
1.70211 0.0790337 0
1.8854 0.0809707 0
1.88526 -3.72584e-23 0
2.06413 -6.77092e-23 0
1.8854 0.0809707 0
2.06446 0.0830473 0
2.06413 -6.77092e-23 0
2.23799 -1.72704e-23 0
2.06446 0.0830473 0
2.23858 0.0848015 0
2.23799 -1.72704e-23 0
2.40693 9.46891e-23 0
2.23858 0.0848015 0
2.40777 0.0854446 0
2.40693 9.46891e-23 0
2.57255 5.21402e-23 0
2.40777 0.0854446 0
2.57353 0.0838047 0
2.57255 5.21402e-23 0
2.73885 6.10973e-23 0
2.57353 0.0838047 0
2.73974 0.0785786 0
2.73885 6.10973e-23 0
2.9128 2.94892e-23 0
2.73974 0.0785786 0
2.91333 0.0694506 0
2.9128 2.94892e-23 0
3.10241 5.19735e-23 0
2.91333 0.0694506 0
3.10255 0.0592216 0
3.10241 5.19735e-23 0
3.30808 1.94347e-23 0
3.10255 0.0592216 0
3.30802 0.054507 0
3.30808 1.94347e-23 0
3.51277 2.95013e-23 0
3.30802 0.054507 0
3.51253 0.0603581 0
3.51277 2.95013e-23 0
3.69976 -1.5896e-23 0
3.51253 0.0603581 0
3.69915 0.0718473 0
3.69976 -1.5896e-23 0
3.86949 -3.81439e-23 0
3.69915 0.0718473 0
3.86861 0.0824905 0
3.86949 -3.81439e-23 0
4.02933 -6.72102e-23 0
3.86861 0.0824905 0
4.02849 0.0895222 0
4.02933 -6.72102e-23 0
4.18514 5.76026e-23 0
4.02849 0.0895222 0
4.18464 0.0931186 0
4.18514 5.76026e-23 0
4.33983 -9.32233e-23 0
4.18464 0.0931186 0
4.33983 0.0941825 0
-4.33983 0.0941825 0
-4.18464 0.0931186 0
-4.33983 0.18633 0
-4.18319 0.184371 0
-4.18464 0.0931186 0
-4.02849 0.0895222 0
-4.18319 0.184371 0
-4.02603 0.177714 0
-4.02849 0.0895222 0
-3.86861 0.0824905 0
-4.02603 0.177714 0
-3.86601 0.164563 0
-3.86861 0.0824905 0
-3.69915 0.0718473 0
-3.86601 0.164563 0
-3.69736 0.144343 0
-3.69915 0.0718473 0
-3.51253 0.0603581 0
-3.69736 0.144343 0
-3.51185 0.122095 0
-3.51253 0.0603581 0
-3.30802 0.054507 0
-3.51185 0.122095 0
-3.30786 0.110576 0
-3.30802 0.054507 0
-3.10255 0.0592216 0
-3.30786 0.110576 0
-3.10291 0.119934 0
-3.10255 0.0592216 0
-2.91333 0.0694506 0
-3.10291 0.119934 0
-2.91489 0.139816 0
-2.91333 0.0694506 0
-2.73974 0.0785786 0
-2.91489 0.139816 0
-2.74232 0.157205 0
-2.73974 0.0785786 0
-2.57353 0.0838047 0
-2.74232 0.157205 0
-2.57635 0.166976 0
-2.57353 0.0838047 0
-2.40777 0.0854446 0
-2.57635 0.166976 0
-2.41013 0.169948 0
-2.40777 0.0854446 0
-2.23858 0.0848015 0
-2.41013 0.169948 0
-2.24019 0.168654 0
-2.23858 0.0848015 0
-2.06446 0.0830473 0
-2.24019 0.168654 0
-2.06536 0.165298 0
-2.06446 0.0830473 0
-1.8854 0.0809707 0
-2.06536 0.165298 0
-1.88576 0.161352 0
-1.8854 0.0809707 0
-1.70211 0.0790337 0
-1.88576 0.161352 0
-1.70212 0.15768 0
-1.70211 0.0790337 0
-1.51566 0.0774685 0
-1.70212 0.15768 0
-1.51548 0.154718 0
-1.51566 0.0774685 0
-1.32713 0.0763506 0
-1.51548 0.154718 0
-1.32687 0.152607 0
-1.32713 0.0763506 0
-1.13747 0.0756538 0
-1.32687 0.152607 0
-1.1372 0.151294 0
-1.13747 0.0756538 0
-0.947378 0.0752956 0
-1.1372 0.151294 0
-0.947151 0.150624 0
-0.947378 0.0752956 0
-0.757329 0.0751731 0
-0.947151 0.150624 0
-0.757155 0.150398 0
-0.757329 0.0751731 0
-0.567559 0.0751868 0
-0.757155 0.150398 0
-0.567439 0.15043 0
-0.567559 0.0751868 0
-0.37813 0.075255 0
-0.567439 0.15043 0
-0.378057 0.150562 0
-0.37813 0.075255 0
-0.188986 0.075319 0
-0.378057 0.150562 0
-0.188952 0.150686 0
-0.188986 0.075319 0
0 0.0753441 0
-0.188952 0.150686 0
0 0.150734 0
0 0.0753441 0
0.188986 0.075319 0
0 0.150734 0
0.188952 0.150686 0
0.188986 0.075319 0
0.37813 0.075255 0
0.188952 0.150686 0
0.378057 0.150562 0
0.37813 0.075255 0
0.567559 0.0751868 0
0.378057 0.150562 0
0.567439 0.15043 0
0.567559 0.0751868 0
0.757329 0.0751731 0
0.567439 0.15043 0
0.757155 0.150398 0
0.757329 0.0751731 0
0.947378 0.0752956 0
0.757155 0.150398 0
0.947151 0.150624 0
0.947378 0.0752956 0
1.13747 0.0756538 0
0.947151 0.150624 0
1.1372 0.151294 0
1.13747 0.0756538 0
1.32713 0.0763506 0
1.1372 0.151294 0
1.32687 0.152607 0
1.32713 0.0763506 0
1.51566 0.0774685 0
1.32687 0.152607 0
1.51548 0.154718 0
1.51566 0.0774685 0
1.70211 0.0790337 0
1.51548 0.154718 0
1.70212 0.15768 0
1.70211 0.0790337 0
1.8854 0.0809707 0
1.70212 0.15768 0
1.88576 0.161352 0
1.8854 0.0809707 0
2.06446 0.0830473 0
1.88576 0.161352 0
2.06536 0.165298 0
2.06446 0.0830473 0
2.23858 0.0848015 0
2.06536 0.165298 0
2.24019 0.168654 0
2.23858 0.0848015 0
2.40777 0.0854446 0
2.24019 0.168654 0
2.41013 0.169948 0
2.40777 0.0854446 0
2.57353 0.0838047 0
2.41013 0.169948 0
2.57635 0.166976 0
2.57353 0.0838047 0
2.73974 0.0785786 0
2.57635 0.166976 0
2.74232 0.157205 0
2.73974 0.0785786 0
2.91333 0.0694506 0
2.74232 0.157205 0
2.91489 0.139816 0
2.91333 0.0694506 0
3.10255 0.0592216 0
2.91489 0.139816 0
3.10291 0.119934 0
3.10255 0.0592216 0
3.30802 0.054507 0
3.10291 0.119934 0
3.30786 0.110576 0
3.30802 0.054507 0
3.51253 0.0603581 0
3.30786 0.110576 0
3.51185 0.122095 0
3.51253 0.0603581 0
3.69915 0.0718473 0
3.51185 0.122095 0
3.69736 0.144343 0
3.69915 0.0718473 0
3.86861 0.0824905 0
3.69736 0.144343 0
3.86601 0.164563 0
3.86861 0.0824905 0
4.02849 0.0895222 0
3.86601 0.164563 0
4.02603 0.177714 0
4.02849 0.0895222 0
4.18464 0.0931186 0
4.02603 0.177714 0
4.18319 0.184371 0
4.18464 0.0931186 0
4.33983 0.0941825 0
4.18319 0.184371 0
4.33983 0.18633 0
-4.33983 0.18633 0
-4.18319 0.184371 0
-4.33983 0.276482 0
-4.18087 0.273812 0
-4.18319 0.184371 0
-4.02603 0.177714 0
-4.18087 0.273812 0
-4.02205 0.26468 0
-4.02603 0.177714 0
-3.86601 0.164563 0
-4.02205 0.26468 0
-3.86173 0.246376 0
-3.86601 0.164563 0
-3.69736 0.144343 0
-3.86173 0.246376 0
-3.69442 0.217586 0
-3.69736 0.144343 0
-3.51185 0.122095 0
-3.69442 0.217586 0
-3.51079 0.185026 0
-3.51185 0.122095 0
-3.30786 0.110576 0
-3.51079 0.185026 0
-3.30761 0.167759 0
-3.30786 0.110576 0
-3.10291 0.119934 0
-3.30761 0.167759 0
-3.10347 0.181966 0
-3.10291 0.119934 0
-2.91489 0.139816 0
-3.10347 0.181966 0
-2.91745 0.211211 0
-2.91489 0.139816 0
-2.74232 0.157205 0
-2.91745 0.211211 0
-2.74653 0.23605 0
-2.74232 0.157205 0
-2.57635 0.166976 0
-2.74653 0.23605 0
-2.58083 0.249626 0
-2.57635 0.166976 0
-2.41013 0.169948 0
-2.58083 0.249626 0
-2.41379 0.253567 0
-2.41013 0.169948 0
-2.24019 0.168654 0
-2.41379 0.253567 0
-2.24265 0.25158 0
-2.24019 0.168654 0
-2.06536 0.165298 0
-2.24265 0.25158 0
-2.06672 0.246758 0
-2.06536 0.165298 0
-1.88576 0.161352 0
-2.06672 0.246758 0
-1.88628 0.241141 0
-1.88576 0.161352 0
-1.70212 0.15768 0
-1.88628 0.241141 0
-1.70212 0.235933 0
-1.70212 0.15768 0
-1.51548 0.154718 0
-1.70212 0.235933 0
-1.51518 0.231741 0
-1.51548 0.154718 0
-1.32687 0.152607 0
-1.51518 0.231741 0
-1.32646 0.228761 0
-1.32687 0.152607 0
-1.1372 0.151294 0
-1.32646 0.228761 0
-1.13679 0.226916 0
-1.1372 0.151294 0
-0.947151 0.150624 0
-1.13679 0.226916 0
-0.946798 0.225981 0
-0.947151 0.150624 0
-0.757155 0.150398 0
-0.946798 0.225981 0
-0.756887 0.225675 0
-0.757155 0.150398 0
-0.567439 0.15043 0
-0.756887 0.225675 0
-0.567255 0.225729 0
-0.567439 0.15043 0
-0.378057 0.150562 0
-0.567255 0.225729 0
-0.377945 0.225924 0
-0.378057 0.150562 0
-0.188952 0.150686 0
-0.377945 0.225924 0
-0.1889 0.226102 0
-0.188952 0.150686 0
0 0.150734 0
-0.1889 0.226102 0
0 0.226171 0
0 0.150734 0
0.188952 0.150686 0
0 0.226171 0
0.1889 0.226102 0
0.188952 0.150686 0
0.378057 0.150562 0
0.1889 0.226102 0
0.377945 0.225924 0
0.378057 0.150562 0
0.567439 0.15043 0
0.377945 0.225924 0
0.567255 0.225729 0
0.567439 0.15043 0
0.757155 0.150398 0
0.567255 0.225729 0
0.756887 0.225675 0
0.757155 0.150398 0
0.947151 0.150624 0
0.756887 0.225675 0
0.946798 0.225981 0
0.947151 0.150624 0
1.1372 0.151294 0
0.946798 0.225981 0
1.13679 0.226916 0
[...]
POINT_DATA 2688
SCALARS x1_displacement double 1
LOOKUP_TABLE default
1.29224 1.21226 1.29224 1.21276 1.21226 1.1334 1.21276 1.13424 1.1334 1.05857 1.13424 1.05945 1.05857 0.993629 1.05945 0.994236 0.993629 0.945948 0.994236 0.946194 0.945948 0.915967 0.946194 0.916027 0.915967 0.886967 0.916027 0.886832 0.886967 0.841922 0.886832 0.84139 0.841922 0.781201 0.84139 0.780312 0.781201 0.712832 0.780312 0.711845 0.712832 0.643777 0.711845 0.642937 0.643777 0.578048 0.642937 0.577464 0.578048 0.517242 0.577464 0.51691 0.517242 0.461442 0.51691 0.461305 0.461442 0.409926 0.461305 0.409916 0.409926 0.361634 0.409916 0.361695 0.361634 0.315465 0.361695 0.315557 0.315465 0.27046 0.315557 0.270554 0.27046 0.225891 0.270554 0.225972 0.225891 0.181287 0.225972 0.18135 0.181287 0.136406 0.18135 0.13645 0.136406 0.0911827 0.13645 0.0912092 0.0911827 0.0456716 0.0912092 0.045684 0.0456716 0 0.045684 0 0 -0.0456716 0 -0.045684 -0.0456716 -0.0911827 -0.045684 -0.0912092 -0.0911827 -0.136406 -0.0912092 -0.13645 -0.136406 -0.181287 -0.13645 -0.18135 -0.181287 -0.225891 -0.18135 -0.225972 -0.225891 -0.27046 -0.225972 -0.270554 -0.27046 -0.315465 -0.270554 -0.315557 -0.315465 -0.361634 -0.315557 -0.361695 -0.361634 -0.409926 -0.361695 -0.409916 -0.409926 -0.461442 -0.409916 -0.461305 -0.461442 -0.517242 -0.461305 -0.51691 -0.517242 -0.578048 -0.51691 -0.577464 -0.578048 -0.643777 -0.577464 -0.642937 -0.643777 -0.712832 -0.642937 -0.711845 -0.712832 -0.781201 -0.711845 -0.780312 -0.781201 -0.841922 -0.780312 -0.84139 -0.841922 -0.886967 -0.84139 -0.886832 -0.886967 -0.915967 -0.886832 -0.916027 -0.915967 -0.945948 -0.916027 -0.946194 -0.945948 -0.993629 -0.946194 -0.994236 -0.993629 -1.05857 -0.994236 -1.05945 -1.05857 -1.1334 -1.05945 -1.13424 -1.1334 -1.21226 -1.13424 -1.21276 -1.21226 -1.29224 -1.21276 -1.29224 1.29224 1.21276 1.29224 1.21421 1.21276 1.13424 1.21421 1.1367 1.13424 1.05945 1.1367 1.06205 1.05945 0.994236 1.06205 0.996026 0.994236 0.946194 0.996026 0.946873 0.946194 0.916027 0.946873 0.91619 0.916027 0.886832 0.91619 0.886471 0.886832 0.84139 0.886471 0.839833 0.84139 0.780312 0.839833 0.777726 0.780312 0.711845 0.777726 0.709029 0.711845 0.642937 0.709029 0.640583 0.642937 0.577464 0.640583 0.575853 0.577464 0.51691 0.575853 0.516009 0.51691 0.461305 0.516009 0.460943 0.461305 0.409916 0.460943 0.409907 0.409916 0.361695 0.409907 0.361879 0.361695 0.315557 0.361879 0.315818 0.315557 0.270554 0.315818 0.270818 0.270554 0.225972 0.270818 0.226199 0.225972 0.18135 0.226199 0.181524 0.18135 0.13645 0.181524 0.13657 0.13645 0.0912092 0.13657 0.0912823 0.0912092 0.045684 0.0912823 0.045718 0.045684 0 0.045718 0 0 -0.045684 0 -0.045718 -0.045684 -0.0912092 -0.045718 -0.0912823 -0.0912092 -0.13645 -0.0912823 -0.13657 -0.13645 -0.18135 -0.13657 -0.181524 -0.18135 -0.225972 -0.181524 -0.226199 -0.225972 -0.270554 -0.226199 -0.270818 -0.270554 -0.315557 -0.270818 -0.315818 -0.315557 -0.361695 -0.315818 -0.361879 -0.361695 -0.409916 -0.361879 -0.409907 -0.409916 -0.461305 -0.409907 -0.460943 -0.461305 -0.51691 -0.460943 -0.516009 -0.51691 -0.577464 -0.516009 -0.575853 -0.577464 -0.642937 -0.575853 -0.640583 -0.642937 -0.711845 -0.640583 -0.709029 -0.711845 -0.780312 -0.709029 -0.777726 -0.780312 -0.84139 -0.777726 -0.839833 -0.84139 -0.886832 -0.839833 -0.886471 -0.886832 -0.916027 -0.886471 -0.91619 -0.916027 -0.946194 -0.91619 -0.946873 -0.946194 -0.994236 -0.946873 -0.996026 -0.994236 -1.05945 -0.996026 -1.06205 -1.05945 -1.13424 -1.06205 -1.1367 -1.13424 -1.21276 -1.1367 -1.21421 -1.21276 -1.29224 -1.21421 -1.29224 1.29224 1.21421 1.29224 1.21653 1.21421 1.1367 1.21653 1.14068 1.1367 1.06205 1.14068 1.06633 1.06205 0.996026 1.06633 0.998975 0.996026 0.946873 0.998975 0.947934 0.946873 0.91619 0.947934 0.916443 0.91619 0.886471 0.916443 0.885911 0.886471 0.839833 0.885911 0.837272 0.839833 0.777726 0.837272 0.773524 0.777726 0.709029 0.773524 0.704553 0.709029 0.640583 0.704553 0.636918 0.640583 0.575853 0.636918 0.573388 0.575853 0.516009 0.573388 0.514651 0.516009 0.460943 0.514651 0.460415 0.460943 0.409907 0.460415 0.409913 0.409907 0.361879 0.409913 0.362177 0.361879 0.315818 0.362177 0.31623 0.315818 0.270818 0.31623 0.271231 0.270818 0.226199 0.271231 0.226552 0.226199 0.181524 0.226552 0.181792 0.181524 0.13657 0.181792 0.136754 0.13657 0.0912823 0.136754 0.0913939 0.0912823 0.045718 0.0913939 0.0457698 0.045718 0 0.0457698 0 0 -0.045718 0 -0.0457698 -0.045718 -0.0912823 -0.0457698 -0.0913939 -0.0912823 -0.13657 -0.0913939 -0.136754 -0.13657 -0.181524 -0.136754 -0.181792 -0.181524 -0.226199 -0.181792 -0.226552 -0.226199 -0.270818 -0.226552 -0.271231 -0.270818 -0.315818 -0.271231 -0.31623 -0.315818 -0.361879 -0.31623 -0.362177 -0.361879 -0.409907 -0.362177 -0.409913 -0.409907 -0.460943 -0.409913 -0.460415 -0.460943 -0.516009 -0.460415 -0.514651 -0.516009 -0.575853 -0.514651 -0.573388 -0.575853 -0.640583 -0.573388 -0.636918 -0.640583 -0.709029 -0.636918 -0.704553 -0.709029 -0.777726 -0.704553 -0.773524 -0.777726 -0.839833 -0.773524 -0.837272 -0.839833 -0.886471 -0.837272 -0.885911 -0.886471 -0.91619 -0.885911 -0.916443 -0.91619 -0.946873 -0.916443 -0.947934 -0.946873 -0.996026 -0.947934 -0.998975 -0.996026 -1.06205 -0.998975 -1.06633 -1.06205 -1.1367 -1.06633 -1.14068 -1.1367 -1.21421 -1.14068 -1.21653 -1.21421 -1.29224 -1.21653 -1.29224 1.29224 1.21653 1.29224 1.21968 1.21653 1.14068 1.21968 1.14618 1.14068 1.06633 1.14618 1.07238 1.06633 0.998975 1.07238 1.00324 0.998975 0.947934 1.00324 0.949437 0.947934 0.916443 0.949437 0.916772 0.916443 0.885911 0.916772 0.885082 0.885911 0.837272 0.885082 0.833562 0.837272 0.773524 0.833562 0.767649 0.773524 0.704553 0.767649 0.698525 0.704553 0.636918 0.698525 0.632138 0.636918 0.573388 0.632138 0.570256 0.573388 0.514651 0.570256 0.512972 0.514651 0.460415 0.512972 0.459799 0.460415 0.409913 0.459799 0.409972 0.409913 0.362177 0.409972 0.362595 0.362177 0.31623 0.362595 0.316782 0.31623 0.271231 0.316782 0.271774 0.271231 0.226552 0.271774 0.227009 0.226552 0.181792 0.227009 0.182137 0.181792 0.136754 0.182137 0.136989 0.136754 0.0913939 0.136989 0.091535 0.0913939 0.0457698 0.091535 0.0458349 0.0457698 0 0.0458349 0 0 -0.0457698 0 -0.0458349 -0.0457698 -0.0913939 -0.0458349 -0.091535 -0.0913939 -0.136754 -0.091535 -0.136989 -0.136754 -0.181792 -0.136989 -0.182137 -0.181792 -0.226552 -0.182137 -0.227009 -0.226552 -0.271231 -0.227009 -0.271774 -0.271231 -0.31623 -0.271774 -0.316782 -0.31623 -0.362177 -0.316782 -0.362595 -0.362177 -0.409913 -0.362595 -0.409972 -0.409913 -0.460415 -0.409972 -0.459799 -0.460415 -0.514651 -0.459799 -0.512972 -0.514651 -0.573388 -0.512972 -0.570256 -0.573388 -0.636918 -0.570256 -0.632138 -0.636918 -0.704553 -0.632138 -0.698525 -0.704553 -0.773524 -0.698525 -0.767649 -0.773524 -0.837272 -0.767649 -0.833562 -0.837272 -0.885911 -0.833562 -0.885082 -0.885911 -0.916443 -0.885082 -0.916772 -0.916443 -0.947934 -0.916772 -0.949437 -0.947934 -0.998975 -0.949437 -1.00324 -0.998975 -1.06633 -1.00324 -1.07238 -1.06633 -1.14068 -1.07238 -1.14618 -1.14068 -1.21653 -1.14618 -1.21968 -1.21653 -1.29224 -1.21968 -1.29224 1.29224 1.21968 1.29224 1.22359 1.21968 1.14618 1.22359 1.15321 1.14618 1.07238 1.15321 1.08044 1.07238 1.00324 1.08044 1.00918 1.00324 0.949437 1.00918 0.951549 0.949437 0.916772 0.951549 0.917171 0.916772 0.885082 0.917171 0.883815 0.885082 0.833562 0.883815 0.828383 0.833562 0.767649 0.828383 0.759932 0.767649 0.698525 0.759932 0.691021 0.698525 0.632138 0.691021 0.626444 0.632138 0.570256 0.626444 0.566657 0.570256 0.512972 0.566657 0.511121 0.512972 0.459799 0.511121 0.459188 0.459799 0.409972 0.459188 0.410131 0.409972 0.362595 0.410131 0.363151 0.362595 0.316782 0.363151 0.317472 0.316782 0.271774 0.317472 0.272434 0.271774 0.227009 0.272434 0.227555 0.227009 0.182137 0.227555 0.182542 0.182137 0.136989 0.182542 0.137261 0.136989 0.091535 0.137261 0.0916959 0.091535 0.0458349 0.0916959 0.0459084 0.0458349 0 0.0459084 0 0 -0.0458349 0 -0.0459084 -0.0458349 -0.091535 -0.0459084 -0.0916959 -0.091535 -0.136989 -0.0916959 -0.137261 -0.136989 -0.182137 -0.137261 -0.182542 -0.182137 -0.227009 -0.182542 -0.227555 -0.227009 -0.271774 -0.227555 -0.272434 -0.271774 -0.316782 -0.272434 -0.317472 -0.316782 -0.362595 -0.317472 -0.363151 -0.362595 -0.409972 -0.363151 -0.410131 -0.409972 -0.459799 -0.410131 -0.459188 -0.459799 -0.512972 -0.459188 -0.511121 -0.512972 -0.570256 -0.511121 -0.566657 -0.570256 -0.632138 -0.566657 -0.626444 -0.632138 -0.698525 -0.626444 -0.691021 -0.698525 -0.767649 -0.691021 -0.759932 -0.767649 -0.833562 -0.759932 -0.828383 -0.833562 -0.885082 -0.828383 -0.883815 -0.885082 -0.916772 -0.883815 -0.917171 -0.916772 -0.949437 -0.917171 -0.951549 -0.949437 -1.00324 -0.951549 -1.00918 -1.00324 -1.07238 -1.00918 -1.08044 -1.07238 -1.14618 -1.08044 -1.15321 -1.14618 -1.21968 -1.15321 -1.22359 -1.21968 -1.29224 -1.22359 -1.29224 1.29224 1.22359 1.29224 1.22821 1.22359 1.15321 1.22821 1.16179 1.15321 1.08044 1.16179 1.09083 1.08044 1.00918 1.09083 1.01732 1.00918 0.951549 1.01732 0.954581 0.951549 0.917171 0.954581 0.917632 0.917171 0.883815 0.917632 0.881805 0.883815 0.828383 0.881805 0.821221 0.828383 0.759932 0.821221 0.750112 0.759932 0.691021 0.750112 0.682126 0.691021 0.626444 0.682126 0.620063 0.626444 0.566657 0.620063 0.562808 0.566657 0.511121 0.562808 0.509258 0.511121 0.459188 0.509258 0.458688 0.459188 0.410131 0.458688 0.410449 0.410131 0.363151 0.410449 0.363869 0.363151 0.317472 0.363869 0.318301 0.317472 0.272434 0.318301 0.273199 0.272434 0.227555 0.273199 0.228172 0.227555 0.182542 0.228172 0.182989 0.182542 0.137261 0.182989 0.137554 0.137261 0.0916959 0.137554 0.0918664 0.0916959 0.0459084 0.0918664 0.0459851 0.0459084 0 0.0459851 0 0 -0.0459084 0 -0.0459851 -0.0459084 -0.0916959 -0.0459851 -0.0918664 -0.0916959 -0.137261 -0.0918664 -0.137554 -0.137261 -0.182542 -0.137554 -0.182989 -0.182542 -0.227555 -0.182989 -0.228172 -0.227555 -0.272434 -0.228172 -0.273199 -0.272434 -0.317472 -0.273199 -0.318301 -0.317472 -0.363151 -0.318301 -0.363869 -0.363151 -0.410131 -0.363869 -0.410449 -0.410131 -0.459188 -0.410449 -0.458688 -0.459188 -0.511121 -0.458688 -0.509258 -0.511121 -0.566657 -0.509258 -0.562808 -0.566657 -0.626444 -0.562808 -0.620063 -0.626444 -0.691021 -0.620063 -0.682126 -0.691021 -0.759932 -0.682126 -0.750112 -0.759932 -0.828383 -0.750112 -0.821221 -0.828383 -0.883815 -0.821221 -0.881805 -0.883815 -0.917171 -0.881805 -0.917632 -0.917171 -0.951549 -0.917632 -0.954581 -0.951549 -1.00918 -0.954581 -1.01732 -1.00918 -1.08044 -1.01732 -1.09083 -1.08044 -1.15321 -1.09083 -1.16179 -1.15321 -1.22359 -1.16179 -1.22821 -1.22359 -1.29224 -1.22821 -1.29224 1.29224 1.22821 1.29224 1.23342 1.22821 1.16179 1.23342 1.17186 1.16179 1.09083 1.17186 1.10388 1.09083 1.01732 1.10388 1.02845 1.01732 0.954581 1.02845 0.959051 0.954581 0.917632 0.959051 0.918148 0.917632 0.881805 0.918148 0.878544 0.881805 0.821221 0.878544 0.811315 0.821221 0.750112 0.811315 0.73789 0.750112 0.682126 0.73789 0.67199 0.682126 0.620063 0.67199 0.613263 0.620063 0.562808 0.613263 0.558938 0.562808 0.509258 0.558938 0.507551 0.509258 0.458688 0.507551 0.458408 0.458688 0.410449 0.458408 0.410988 0.410449 0.363869 0.410988 0.364775 0.363869 0.318301 0.364775 0.319272 0.318301 0.273199 0.319272 0.274059 0.273199 0.228172 0.274059 0.228844 0.228172 0.182989 0.228844 0.183462 0.182989 0.137554 0.183462 0.137855 0.137554 0.0918664 0.137855 0.0920358 0.0918664 0.0459851 0.0920358 0.0460594 0.0459851 0 0.0460594 0 0 -0.0459851 0 -0.0460594 -0.0459851 -0.0918664 -0.0460594 -0.0920358 -0.0918664 -0.137554 -0.0920358 -0.137855 -0.137554 -0.182989 -0.137855 -0.183462 -0.182989 -0.228172 -0.183462 -0.228844 -0.228172 -0.273199 -0.228844 -0.274059 -0.273199 -0.318301 -0.274059 -0.319272 -0.318301 -0.363869 -0.319272 -0.364775 -0.363869 -0.410449 -0.364775 -0.410988 -0.410449 -0.458688 -0.410988 -0.458408 -0.458688 -0.509258 -0.458408 -0.507551 -0.509258 -0.562808 -0.507551 -0.558938 -0.562808 -0.620063 -0.558938 -0.613263 -0.620063 -0.682126 -0.613263 -0.67199 -0.682126 -0.750112 -0.67199 -0.73789 -0.750112 -0.821221 -0.73789 -0.811315 -0.821221 -0.881805 -0.811315 -0.878544 -0.881805 -0.917632 -0.878544 -0.918148 -0.917632 -0.954581 -0.918148 -0.959051 -0.954581 -1.01732 -0.959051 -1.02845 -1.01732 -1.09083 -1.02845 -1.10388 -1.09083 -1.16179 -1.10388 -1.17186 -1.16179 -1.22821 -1.17186 -1.23342 -1.22821 -1.29224 -1.23342 -1.29224 1.29224 1.23342 1.29224 1.23904 1.23342 1.17186 1.23904 1.18322 1.17186 1.10388 1.18322 1.11989 1.10388 1.02845 1.11989 1.04367 1.02845 0.959051 1.04367 0.965821 0.959051 0.918148 0.965821 0.918711 0.918148 0.878544 0.918711 0.873186 0.878544 0.811315 0.873186 0.797603 0.811315 0.73789 0.797603 0.72302 0.73789 0.67199 0.72302 0.66089 0.67199 0.613263 0.66089 0.606356 0.613263 0.558938 0.606356 0.555285 0.558938 0.507551 0.555285 0.506169 0.507551 0.458408 0.506169 0.458459 0.458408 0.410988 0.458459 0.411812 0.410988 0.364775 0.411812 0.365898 0.364775 0.319272 0.365898 0.320387 0.319272 0.274059 0.320387 0.275001 0.274059 0.228844 0.275001 0.229551 0.228844 0.183462 0.229551 0.18394 0.183462 0.137855 0.18394 0.138146 0.137855 0.0920358 0.138146 0.0921928 0.0920358 0.0460594 0.0921928 0.0461257 0.0460594 0 0.0461257 0 0 -0.0460594 0 -0.0461257 -0.0460594 -0.0920358 -0.0461257 -0.0921928 -0.0920358 -0.137855 -0.0921928 -0.138146 -0.137855 -0.183462 -0.138146 -0.18394 -0.183462 -0.228844 -0.18394 -0.229551 -0.228844 -0.274059 -0.229551 -0.275001 -0.274059 -0.319272 -0.275001 -0.320387 -0.319272 -0.364775 -0.320387 -0.365898 -0.364775 -0.410988 -0.365898 -0.411812 -0.410988 -0.458408 -0.411812 -0.458459 -0.458408 -0.507551 -0.458459 -0.506169 -0.507551 -0.558938 -0.506169 -0.555285 -0.558938 -0.613263 -0.555285 -0.606356 -0.613263 -0.67199 -0.606356 -0.66089 -0.67199 -0.73789 -0.66089 -0.72302 -0.73789 -0.811315 -0.72302 -0.797603 -0.811315 -0.878544 -0.797603 -0.873186 -0.878544 -0.918148 -0.873186 -0.918711 -0.918148 -0.959051 -0.918711 -0.965821 -0.959051 -1.02845 -0.965821 -1.04367 -1.02845 -1.10388 -1.04367 -1.11989 -1.10388 -1.17186 -1.11989 -1.18322 -1.17186 -1.23342 -1.18322 -1.23904 -1.23342 -1.29224 -1.23904 -1.29224 1.29224 1.23904 1.29224 1.24489 1.23904 1.18322 1.24489 1.19546 1.18322 1.11989 1.19546 1.13885 1.11989 1.04367 1.13885 1.0644 1.04367 0.965821 1.0644 0.976345 0.965821 0.918711 0.976345 0.919312 0.918711 0.873186 0.919312 0.86429 0.873186 0.797603 0.86429 0.778657 0.797603 0.72302 0.778657 0.705496 0.72302 0.66089 0.705496 0.649285 0.66089 0.606356 0.649285 0.599687 0.606356 0.555285 0.599687 0.552086 0.555285 0.506169 0.552086 0.505283 0.506169 0.458459 0.505283 0.458951 0.458459 0.411812 0.458951 0.412982 0.411812 0.365898 0.412982 0.367263 0.365898 0.320387 0.367263 0.321649 0.320387 0.275001 0.321649 0.276014 0.275001 0.229551 0.276014 0.230275 0.229551 0.18394 0.230275 0.184405 0.18394 0.138146 0.184405 0.138413 0.138146 0.0921928 0.138413 0.0923261 0.0921928 0.0461257 0.0923261 0.0461781 0.0461257 0 0.0461781 0 0 -0.0461257 0 -0.0461781 -0.0461257 -0.0921928 -0.0461781 -0.0923261 -0.0921928 -0.138146 -0.0923261 -0.138413 -0.138146 -0.18394 -0.138413 -0.184405 -0.18394 -0.229551 -0.184405 -0.230275 -0.229551 -0.275001 -0.230275 -0.276014 -0.275001 -0.320387 -0.276014 -0.321649 -0.320387 -0.365898 -0.321649 -0.367263 -0.365898 -0.411812 -0.367263 -0.412982 -0.411812 -0.458459 -0.412982 -0.458951 -0.458459 -0.506169 -0.458951 -0.505283 -0.506169 -0.555285 -0.505283 -0.552086 -0.555285 -0.606356 -0.552086 -0.599687 -0.606356 -0.66089 -0.599687 -0.649285 -0.66089 -0.72302 -0.649285 -0.705496 -0.72302 -0.797603 -0.705496 -0.778657 -0.797603 -0.873186 -0.778657 -0.86429 -0.873186 -0.918711 -0.86429 -0.919312 -0.918711 -0.965821 -0.919312 -0.976345 -0.965821 -1.04367 -0.976345 -1.0644 -1.04367 -1.11989 -1.0644 -1.13885 -1.11989 -1.18322 -1.13885 -1.19546 -1.18322 -1.23904 -1.19546 -1.24489 -1.23904 -1.29224 -1.24489 -1.29224 1.29224 1.24489 1.29224 1.25075 1.24489 1.19546 1.25075 1.20799 1.19546 1.13885 1.20799 1.16018 1.13885 1.0644 1.16018 1.09232 1.0644 0.976345 1.09232 0.993188 0.976345 0.919312 0.993188 0.919942 0.919312 0.86429 0.919942 0.8493 0.86429 0.778657 0.8493 0.752741 0.778657 0.705496 0.752741 0.68589 0.705496 0.649285 0.68589 0.637817 0.649285 0.599687 0.637817 0.593594 0.599687 0.552086 0.593594 0.549582 0.552086 0.505283 0.549582 0.50506 0.505283 0.458951 0.50506 0.459993 0.458951 0.412982 0.459993 0.414559 0.412982 0.367263 0.414559 0.368891 0.367263 0.321649 0.368891 0.323054 0.321649 0.276014 0.323054 0.277079 0.276014 0.230275 0.277079 0.230994 0.230275 0.184405 0.230994 0.184835 0.184405 0.138413 0.184835 0.138637 0.138413 0.0923261 0.138637 0.0924238 0.0923261 0.0461781 0.0924238 0.0462107 0.0461781 0 0.0462107 0 0 -0.0461781 0 -0.0462107 -0.0461781 -0.0923261 -0.0462107 -0.0924238 -0.0923261 -0.138413 -0.0924238 -0.138637 -0.138413 -0.184405 -0.138637 -0.184835 -0.184405 -0.230275 -0.184835 -0.230994 -0.230275 -0.276014 -0.230994 -0.277079 -0.276014 -0.321649 -0.277079 -0.323054 -0.321649 -0.367263 -0.323054 -0.368891 -0.367263 -0.412982 -0.368891 -0.414559 -0.412982 -0.458951 -0.414559 -0.459993 -0.458951 -0.505283 -0.459993 -0.50506 -0.505283 -0.552086 -0.50506 -0.549582 -0.552086 -0.599687 -0.549582 -0.593594 -0.599687 -0.649285 -0.593594 -0.637817 -0.649285 -0.705496 -0.637817 -0.68589 -0.705496 -0.778657 -0.68589 -0.752741 -0.778657 -0.86429 -0.752741 -0.8493 -0.86429 -0.919312 -0.8493 -0.919942 -0.919312 -0.976345 -0.919942 -0.993188 -0.976345 -1.0644 -0.993188 -1.09232 -1.0644 -1.13885 -1.09232 -1.16018 -1.13885 -1.19546 -1.16018 -1.20799 -1.19546 -1.24489 -1.20799 -1.25075 -1.24489 -1.29224 -1.25075 -1.29224 1.29224 1.25075 1.29224 1.25645 1.25075 1.20799 1.25645 1.22024 1.20799 1.16018 1.22024 1.18225 1.16018 1.09232 1.18225 1.1287 1.09232 0.993188 1.1287 1.02129 0.993188 0.919942 1.02129 0.920582 0.919942 0.8493 0.920582 0.823247 0.8493 0.752741 0.823247 0.718475 0.752741 0.68589 0.718475 0.665801 0.68589 0.637817 0.665801 0.627124 0.637817 0.593594 0.627124 0.588392 0.593594 0.549582 0.588392 0.548014 0.549582 0.50506 0.548014 0.50566 0.50506 0.459993 0.50566 0.461684 0.459993 0.414559 0.461684 0.416594 0.414559 0.368891 0.416594 0.3708 0.368891 0.323054 0.3708 0.324594 0.323054 0.277079 0.324594 0.278175 0.277079 0.230994 0.278175 0.231683 0.230994 0.184835 0.231683 0.185208 0.184835 0.138637 0.185208 0.1388 0.138637 0.0924238 0.1388 0.0924738 0.0924238 0.0462107 0.0924738 0.0462175 0.0462107 0 0.0462175 0 0 -0.0462107 0 -0.0462175 -0.0462107 -0.0924238 -0.0462175 -0.0924738 -0.0924238 -0.138637 -0.0924738 -0.1388 -0.138637 -0.184835 -0.1388 -0.185208 -0.184835 -0.230994 -0.185208 -0.231683 -0.230994 -0.277079 -0.231683 -0.278175 -0.277079 -0.323054 -0.278175 -0.324594 -0.323054 -0.368891 -0.324594 -0.3708 -0.368891 -0.414559 -0.3708 -0.416594 -0.414559 -0.459993 -0.416594 -0.461684 -0.459993 -0.50506 -0.461684 -0.50566 -0.50506 -0.549582 -0.50566 -0.548014 -0.549582 -0.593594 -0.548014 -0.588392 -0.593594 -0.637817 -0.588392 -0.627124 -0.637817 -0.68589 -0.627124 -0.665801 -0.68589 -0.752741 -0.665801 -0.718475 -0.752741 -0.8493 -0.718475 -0.823247 -0.8493 -0.919942 -0.823247 -0.920582 -0.919942 -0.993188 -0.920582 -1.02129 -0.993188 -1.09232 -1.02129 -1.1287 -1.09232 -1.16018 -1.1287 -1.18225 -1.16018 -1.20799 -1.18225 -1.22024 -1.20799 -1.25075 -1.22024 -1.25645 -1.25075 -1.29224 -1.25645 -1.29224 1.29224 1.25645 1.29224 1.26177 1.25645 1.22024 1.26177 1.2319 1.22024 1.18225 1.2319 1.20271 1.18225 1.1287 1.20271 1.17117 1.1287 1.02129 1.17117 1.07157 1.02129 0.920582 1.07157 0.921187 0.920582 0.823247 0.921187 0.775011 0.823247 0.718475 0.775011 0.678111 0.718475 0.665801 0.678111 0.647565 0.665801 0.627124 0.647565 0.617555 0.627124 0.588392 0.617555 0.584428 0.588392 0.548014 0.584428 0.54761 0.548014 0.50566 0.54761 0.507233 0.50566 0.461684 0.507233 0.46412 0.461684 0.416594 0.46412 0.419133 0.416594 0.3708 0.419133 0.372997 0.3708 0.324594 0.372997 0.326253 0.324594 0.278175 0.3262