# vtk DataFile Version 3.0
#This file was generated by the deal.II library on 2017/9/27 at 13:17:44
ASCII
DATASET UNSTRUCTURED_GRID

POINTS 2688 double
-3.59008 -3.65145e-23 0
-3.45985 0 0
-3.59008 0.0938946 0
-3.45972 0.0924498 0
-3.45985 0 0
-3.32662 0 0
-3.45972 0.0924498 0
-3.3264 0.0882098 0
-3.32662 0 0
-3.18711 0 0
-3.3264 0.0882098 0
-3.18689 0.0816159 0
-3.18711 0 0
-3.03802 0 0
-3.18689 0.0816159 0
-3.03787 0.0738275 0
-3.03802 0 0
-2.87748 0 0
-3.03787 0.0738275 0
-2.87739 0.0669298 0
-2.87748 0 0
-2.70761 0 0
-2.87739 0.0669298 0
-2.70756 0.063387 0
-2.70761 0 0
-2.53571 0 0
-2.70756 0.063387 0
-2.5357 0.0646152 0
-2.53571 0 0
-2.37018 0 0
-2.5357 0.0646152 0
-2.37025 0.0698284 0
-2.37018 0 0
-2.21507 0 0
-2.37025 0.0698284 0
-2.21524 0.0767051 0
-2.21507 0 0
-2.0695 0 0
-2.21524 0.0767051 0
-2.06976 0.0829337 0
-2.0695 0 0
-1.9303 0 0
-2.06976 0.0829337 0
-1.93058 0.0871224 0
-1.9303 0 0
-1.79396 0 0
-1.93058 0.0871224 0
-1.79419 0.0888211 0
-1.79396 0 0
-1.65745 0 0
-1.79419 0.0888211 0
-1.65759 0.0881754 0
-1.65745 0 0
-1.5183 0 0
-1.65759 0.0881754 0
-1.51834 0.0856498 0
-1.5183 0 0
-1.37462 0 0
-1.51834 0.0856498 0
-1.37461 0.0819261 0
-1.37462 0 0
-1.2253 0 0
-1.37461 0.0819261 0
-1.22525 0.077884 0
-1.2253 0 0
-1.07039 0 0
-1.22525 0.077884 0
-1.07033 0.0745197 0
-1.07039 0 0
-0.911482 0 0
-1.07033 0.0745197 0
-0.911417 0.0727037 0
-0.911482 0 0
-0.75146 0 0
-0.911417 0.0727037 0
-0.751407 0.0728466 0
-0.75146 0 0
-0.593424 0 0
-0.751407 0.0728466 0
-0.593391 0.0747055 0
-0.593424 0 0
-0.439417 0 0
-0.593391 0.0747055 0
-0.439408 0.077512 0
-0.439417 0 0
-0.289889 0 0
-0.439408 0.077512 0
-0.289896 0.0803229 0
-0.289889 0 0
-0.143966 0 0
-0.289896 0.0803229 0
-0.143975 0.0823397 0
-0.143966 0 0
0 0 0
-0.143975 0.0823397 0
0 0.0830666 0
0 0 0
0.143966 1.55799e-24 0
0 0.0830666 0
0.143975 0.0823397 0
0.143966 1.55799e-24 0
0.289889 -1.033e-23 0
0.143975 0.0823397 0
0.289896 0.0803229 0
0.289889 -1.033e-23 0
0.439417 1.64591e-24 0
0.289896 0.0803229 0
0.439408 0.077512 0
0.439417 1.64591e-24 0
0.593424 -1.00807e-23 0
0.439408 0.077512 0
0.593391 0.0747055 0
0.593424 -1.00807e-23 0
0.75146 -1.98481e-23 0
0.593391 0.0747055 0
0.751407 0.0728466 0
0.75146 -1.98481e-23 0
0.911482 -3.18146e-24 0
0.751407 0.0728466 0
0.911417 0.0727037 0
0.911482 -3.18146e-24 0
1.07039 7.07232e-24 0
0.911417 0.0727037 0
1.07033 0.0745197 0
1.07039 7.07232e-24 0
1.2253 -8.69991e-24 0
1.07033 0.0745197 0
1.22525 0.077884 0
1.2253 -8.69991e-24 0
1.37462 -2.21971e-23 0
1.22525 0.077884 0
1.37461 0.0819261 0
1.37462 -2.21971e-23 0
1.5183 2.91768e-24 0
1.37461 0.0819261 0
1.51834 0.0856498 0
1.5183 2.91768e-24 0
1.65745 -1.78163e-23 0
1.51834 0.0856498 0
1.65759 0.0881754 0
1.65745 -1.78163e-23 0
1.79396 -8.78731e-24 0
1.65759 0.0881754 0
1.79419 0.0888211 0
1.79396 -8.78731e-24 0
1.9303 2.20303e-23 0
1.79419 0.0888211 0
1.93058 0.0871224 0
1.9303 2.20303e-23 0
2.0695 2.8412e-23 0
1.93058 0.0871224 0
2.06976 0.0829337 0
2.0695 2.8412e-23 0
2.21507 -6.07652e-24 0
2.06976 0.0829337 0
2.21524 0.0767051 0
2.21507 -6.07652e-24 0
2.37018 -4.86203e-24 0
2.21524 0.0767051 0
2.37025 0.0698284 0
2.37018 -4.86203e-24 0
2.53571 -1.41183e-25 0
2.37025 0.0698284 0
2.5357 0.0646152 0
2.53571 -1.41183e-25 0
2.70761 7.80907e-24 0
2.5357 0.0646152 0
2.70756 0.063387 0
2.70761 7.80907e-24 0
2.87748 1.18277e-23 0
2.70756 0.063387 0
2.87739 0.0669298 0
2.87748 1.18277e-23 0
3.03802 4.40097e-24 0
2.87739 0.0669298 0
3.03787 0.0738275 0
3.03802 4.40097e-24 0
3.18711 -1.87471e-23 0
3.03787 0.0738275 0
3.18689 0.0816159 0
3.18711 -1.87471e-23 0
3.32662 -2.87752e-23 0
3.18689 0.0816159 0
3.3264 0.0882098 0
3.32662 -2.87752e-23 0
3.45985 1.61024e-23 0
3.3264 0.0882098 0
3.45972 0.0924498 0
3.45985 1.61024e-23 0
3.59008 -3.65145e-23 0
3.45972 0.0924498 0
3.59008 0.0938946 0
-3.59008 0.0938946 0
-3.45972 0.0924498 0
-3.59008 0.18617 0
-3.45928 0.183455 0
-3.45972 0.0924498 0
-3.3264 0.0882098 0
-3.45928 0.183455 0
-3.3257 0.175467 0
-3.3264 0.0882098 0
-3.18689 0.0816159 0
-3.3257 0.175467 0
-3.18619 0.162977 0
-3.18689 0.0816159 0
-3.03787 0.0738275 0
-3.18619 0.162977 0
-3.03737 0.148112 0
-3.03787 0.0738275 0
-2.87739 0.0669298 0
-3.03737 0.148112 0
-2.87712 0.13484 0
-2.87739 0.0669298 0
-2.70756 0.063387 0
-2.87712 0.13484 0
-2.70742 0.127987 0
-2.70756 0.063387 0
-2.5357 0.0646152 0
-2.70742 0.127987 0
-2.53568 0.130389 0
-2.5357 0.0646152 0
-2.37025 0.0698284 0
-2.53568 0.130389 0
-2.37047 0.140478 0
-2.37025 0.0698284 0
-2.21524 0.0767051 0
-2.37047 0.140478 0
-2.2158 0.153671 0
-2.21524 0.0767051 0
-2.06976 0.0829337 0
-2.2158 0.153671 0
-2.07055 0.16552 0
-2.06976 0.0829337 0
-1.93058 0.0871224 0
-2.07055 0.16552 0
-1.93139 0.173429 0
-1.93058 0.0871224 0
-1.79419 0.0888211 0
-1.93139 0.173429 0
-1.79482 0.176607 0
-1.79419 0.0888211 0
-1.65759 0.0881754 0
-1.79482 0.176607 0
-1.65794 0.175357 0
-1.65759 0.0881754 0
-1.51834 0.0856498 0
-1.65794 0.175357 0
-1.51843 0.170557 0
-1.51834 0.0856498 0
-1.37461 0.0819261 0
-1.51843 0.170557 0
-1.37451 0.163478 0
-1.37461 0.0819261 0
-1.22525 0.077884 0
-1.37451 0.163478 0
-1.22506 0.155775 0
-1.22525 0.077884 0
-1.07033 0.0745197 0
-1.22506 0.155775 0
-1.07012 0.149348 0
-1.07033 0.0745197 0
-0.911417 0.0727037 0
-1.07012 0.149348 0
-0.911229 0.145879 0
-0.911417 0.0727037 0
-0.751407 0.0728466 0
-0.911229 0.145879 0
-0.751264 0.14617 0
-0.751407 0.0728466 0
-0.593391 0.0747055 0
-0.751264 0.14617 0
-0.593319 0.149749 0
-0.593391 0.0747055 0
-0.439408 0.077512 0
-0.593319 0.149749 0
-0.439413 0.155128 0
-0.439408 0.077512 0
-0.289896 0.0803229 0
-0.439413 0.155128 0
-0.289947 0.160494 0
-0.289896 0.0803229 0
-0.143975 0.0823397 0
-0.289947 0.160494 0
-0.14402 0.164333 0
-0.143975 0.0823397 0
0 0.0830666 0
-0.14402 0.164333 0
0 0.165714 0
0 0.0830666 0
0.143975 0.0823397 0
0 0.165714 0
0.14402 0.164333 0
0.143975 0.0823397 0
0.289896 0.0803229 0
0.14402 0.164333 0
0.289947 0.160494 0
0.289896 0.0803229 0
0.439408 0.077512 0
0.289947 0.160494 0
0.439413 0.155128 0
0.439408 0.077512 0
0.593391 0.0747055 0
0.439413 0.155128 0
0.593319 0.149749 0
0.593391 0.0747055 0
0.751407 0.0728466 0
0.593319 0.149749 0
0.751264 0.14617 0
0.751407 0.0728466 0
0.911417 0.0727037 0
0.751264 0.14617 0
0.911229 0.145879 0
0.911417 0.0727037 0
1.07033 0.0745197 0
0.911229 0.145879 0
1.07012 0.149348 0
1.07033 0.0745197 0
1.22525 0.077884 0
1.07012 0.149348 0
1.22506 0.155775 0
1.22525 0.077884 0
1.37461 0.0819261 0
1.22506 0.155775 0
1.37451 0.163478 0
1.37461 0.0819261 0
1.51834 0.0856498 0
1.37451 0.163478 0
1.51843 0.170557 0
1.51834 0.0856498 0
1.65759 0.0881754 0
1.51843 0.170557 0
1.65794 0.175357 0
1.65759 0.0881754 0
1.79419 0.0888211 0
1.65794 0.175357 0
1.79482 0.176607 0
1.79419 0.0888211 0
1.93058 0.0871224 0
1.79482 0.176607 0
1.93139 0.173429 0
1.93058 0.0871224 0
2.06976 0.0829337 0
1.93139 0.173429 0
2.07055 0.16552 0
2.06976 0.0829337 0
2.21524 0.0767051 0
2.07055 0.16552 0
2.2158 0.153671 0
2.21524 0.0767051 0
2.37025 0.0698284 0
2.2158 0.153671 0
2.37047 0.140478 0
2.37025 0.0698284 0
2.5357 0.0646152 0
2.37047 0.140478 0
2.53568 0.130389 0
2.5357 0.0646152 0
2.70756 0.063387 0
2.53568 0.130389 0
2.70742 0.127987 0
2.70756 0.063387 0
2.87739 0.0669298 0
2.70742 0.127987 0
2.87712 0.13484 0
2.87739 0.0669298 0
3.03787 0.0738275 0
2.87712 0.13484 0
3.03737 0.148112 0
3.03787 0.0738275 0
3.18689 0.0816159 0
3.03737 0.148112 0
3.18619 0.162977 0
3.18689 0.0816159 0
3.3264 0.0882098 0
3.18619 0.162977 0
3.3257 0.175467 0
3.3264 0.0882098 0
3.45972 0.0924498 0
3.3257 0.175467 0
3.45928 0.183455 0
3.45972 0.0924498 0
3.59008 0.0938946 0
3.45928 0.183455 0
3.59008 0.18617 0
-3.59008 0.18617 0
-3.45928 0.183455 0
-3.59008 0.277025 0
-3.45851 0.273207 0
-3.45928 0.183455 0
-3.3257 0.175467 0
-3.45851 0.273207 0
-3.32448 0.261929 0
-3.3257 0.175467 0
-3.18619 0.162977 0
-3.32448 0.261929 0
-3.18498 0.244167 0
-3.18619 0.162977 0
-3.03737 0.148112 0
-3.18498 0.244167 0
-3.03653 0.222817 0
-3.03737 0.148112 0
-2.87712 0.13484 0
-3.03653 0.222817 0
-2.87669 0.20355 0
-2.87712 0.13484 0
-2.70742 0.127987 0
-2.87669 0.20355 0
-2.7072 0.193538 0
-2.70742 0.127987 0
-2.53568 0.130389 0
-2.7072 0.193538 0
-2.53563 0.197107 0
-2.53568 0.130389 0
-2.37047 0.140478 0
-2.53563 0.197107 0
-2.37085 0.211865 0
-2.37047 0.140478 0
-2.2158 0.153671 0
-2.37085 0.211865 0
-2.21674 0.230945 0
-2.2158 0.153671 0
-2.07055 0.16552 0
-2.21674 0.230945 0
-2.07189 0.247884 0
-2.07055 0.16552 0
-1.93139 0.173429 0
-2.07189 0.247884 0
-1.93274 0.259076 0
-1.93139 0.173429 0
-1.79482 0.176607 0
-1.93274 0.259076 0
-1.79583 0.26351 0
-1.79482 0.176607 0
-1.65794 0.175357 0
-1.79583 0.26351 0
-1.65846 0.261674 0
-1.65794 0.175357 0
-1.51843 0.170557 0
-1.65846 0.261674 0
-1.5185 0.254809 0
-1.51843 0.170557 0
-1.37451 0.163478 0
-1.5185 0.254809 0
-1.37429 0.244687 0
-1.37451 0.163478 0
-1.22506 0.155775 0
-1.37429 0.244687 0
-1.22473 0.233642 0
-1.22506 0.155775 0
-1.07012 0.149348 0
-1.22473 0.233642 0
-1.06978 0.224399 0
-1.07012 0.149348 0
-0.911229 0.145879 0
-1.06978 0.224399 0
-0.910929 0.219413 0
-0.911229 0.145879 0
-0.751264 0.14617 0
-0.910929 0.219413 0
-0.751046 0.219872 0
-0.751264 0.14617 0
-0.593319 0.149749 0
-0.751046 0.219872 0
-0.593227 0.225079 0
-0.593319 0.149749 0
-0.439413 0.155128 0
-0.593227 0.225079 0
-0.439454 0.232851 0
-0.439413 0.155128 0
-0.289947 0.160494 0
-0.439454 0.232851 0
-0.290062 0.240563 0
-0.289947 0.160494 0
-0.14402 0.164333 0
-0.290062 0.240563 0
-0.144113 0.246058 0
-0.14402 0.164333 0
0 0.165714 0
-0.144113 0.246058 0
0 0.248032 0
0 0.165714 0
0.14402 0.164333 0
0 0.248032 0
0.144113 0.246058 0
0.14402 0.164333 0
0.289947 0.160494 0
0.144113 0.246058 0
0.290062 0.240563 0
0.289947 0.160494 0
0.439413 0.155128 0
0.290062 0.240563 0
0.439454 0.232851 0
0.439413 0.155128 0
0.593319 0.149749 0
0.439454 0.232851 0
0.593227 0.225079 0
0.593319 0.149749 0
0.751264 0.14617 0
0.593227 0.225079 0
0.751046 0.219872 0
0.751264 0.14617 0
0.911229 0.145879 0
0.751046 0.219872 0
0.910929 0.219413 0
[...]
POINT_DATA 2688
SCALARS x1_displacement double 1
LOOKUP_TABLE default
2.04199 1.93755 2.04199 1.93768 1.93755 1.83611 1.93768 1.83633 1.83611 1.74095 1.83633 1.74117 1.74095 1.65537 1.74117 1.65552 1.65537 1.58124 1.65552 1.58133 1.58124 1.51644 1.58133 1.51649 1.51644 1.45367 1.51649 1.45368 1.45367 1.38454 1.45368 1.38447 1.38454 1.30498 1.38447 1.30481 1.30498 1.21588 1.30481 1.21562 1.21588 1.12041 1.21562 1.12013 1.12041 1.02208 1.12013 1.02185 1.02208 0.923921 1.02185 0.923784 0.923921 0.828404 0.923784 0.828355 0.828404 0.737409 0.828355 0.737425 0.737409 0.652058 0.737425 0.65211 0.652058 0.572298 0.65211 0.572364 0.572298 0.496538 0.572364 0.496603 0.496538 0.42189 0.496603 0.421943 0.42189 0.345255 0.421943 0.345288 0.345255 0.264592 0.345288 0.264601 0.264592 0.17945 0.264601 0.179443 0.17945 0.0907043 0.179443 0.0906953 0.0907043 0 0.0906953 0 0 -0.0907043 0 -0.0906953 -0.0907043 -0.17945 -0.0906953 -0.179443 -0.17945 -0.264592 -0.179443 -0.264601 -0.264592 -0.345255 -0.264601 -0.345288 -0.345255 -0.42189 -0.345288 -0.421943 -0.42189 -0.496538 -0.421943 -0.496603 -0.496538 -0.572298 -0.496603 -0.572364 -0.572298 -0.652058 -0.572364 -0.65211 -0.652058 -0.737409 -0.65211 -0.737425 -0.737409 -0.828404 -0.737425 -0.828355 -0.828404 -0.923921 -0.828355 -0.923784 -0.923921 -1.02208 -0.923784 -1.02185 -1.02208 -1.12041 -1.02185 -1.12013 -1.12041 -1.21588 -1.12013 -1.21562 -1.21588 -1.30498 -1.21562 -1.30481 -1.30498 -1.38454 -1.30481 -1.38447 -1.38454 -1.45367 -1.38447 -1.45368 -1.45367 -1.51644 -1.45368 -1.51649 -1.51644 -1.58124 -1.51649 -1.58133 -1.58124 -1.65537 -1.58133 -1.65552 -1.65537 -1.74095 -1.65552 -1.74117 -1.74095 -1.83611 -1.74117 -1.83633 -1.83611 -1.93755 -1.83633 -1.93768 -1.93755 -2.04199 -1.93768 -2.04199 2.04199 1.93768 2.04199 1.93812 1.93768 1.83633 1.93812 1.83703 1.83633 1.74117 1.83703 1.74187 1.74117 1.65552 1.74187 1.65602 1.65552 1.58133 1.65602 1.5816 1.58133 1.51649 1.5816 1.51663 1.51649 1.45368 1.51663 1.4537 1.45368 1.38447 1.4537 1.38425 1.38447 1.30481 1.38425 1.30425 1.30481 1.21562 1.30425 1.21483 1.21562 1.12013 1.21483 1.11932 1.12013 1.02185 1.11932 1.02122 1.02185 0.923784 1.02122 0.923431 0.923784 0.828355 0.923431 0.828271 0.828355 0.737425 0.828271 0.737524 0.737425 0.65211 0.737524 0.652295 0.65211 0.572364 0.652295 0.572569 0.572364 0.496603 0.572569 0.496791 0.496603 0.421943 0.496791 0.422086 0.421943 0.345288 0.422086 0.34536 0.345288 0.264601 0.34536 0.264596 0.264601 0.179443 0.264596 0.179392 0.179443 0.0906953 0.179392 0.0906502 0.0906953 0 0.0906502 0 0 -0.0906953 0 -0.0906502 -0.0906953 -0.179443 -0.0906502 -0.179392 -0.179443 -0.264601 -0.179392 -0.264596 -0.264601 -0.345288 -0.264596 -0.34536 -0.345288 -0.421943 -0.34536 -0.422086 -0.421943 -0.496603 -0.422086 -0.496791 -0.496603 -0.572364 -0.496791 -0.572569 -0.572364 -0.65211 -0.572569 -0.652295 -0.65211 -0.737425 -0.652295 -0.737524 -0.737425 -0.828355 -0.737524 -0.828271 -0.828355 -0.923784 -0.828271 -0.923431 -0.923784 -1.02185 -0.923431 -1.02122 -1.02185 -1.12013 -1.02122 -1.11932 -1.12013 -1.21562 -1.11932 -1.21483 -1.21562 -1.30481 -1.21483 -1.30425 -1.30481 -1.38447 -1.30425 -1.38425 -1.38447 -1.45368 -1.38425 -1.4537 -1.45368 -1.51649 -1.4537 -1.51663 -1.51649 -1.58133 -1.51663 -1.5816 -1.58133 -1.65552 -1.5816 -1.65602 -1.65552 -1.74117 -1.65602 -1.74187 -1.74117 -1.83633 -1.74187 -1.83703 -1.83633 -1.93768 -1.83703 -1.93812 -1.93768 -2.04199 -1.93812 -2.04199 2.04199 1.93812 2.04199 1.93889 1.93812 1.83703 1.93889 1.83825 1.83703 1.74187 1.83825 1.74308 1.74187 1.65602 1.74308 1.65686 1.65602 1.5816 1.65686 1.58203 1.5816 1.51663 1.58203 1.51685 1.51663 1.4537 1.51685 1.45375 1.4537 1.38425 1.45375 1.38387 1.38425 1.30425 1.38387 1.30331 1.30425 1.21483 1.30331 1.21349 1.21483 1.11932 1.21349 1.11797 1.11932 1.02122 1.11797 1.02021 1.02122 0.923431 1.02021 0.922914 0.923431 0.828271 0.922914 0.8282 0.828271 0.737524 0.8282 0.73774 0.737524 0.652295 0.73774 0.652628 0.652295 0.572569 0.652628 0.572911 0.572569 0.496791 0.572911 0.497091 0.496791 0.422086 0.497091 0.422304 0.422086 0.34536 0.422304 0.345452 0.34536 0.264596 0.345452 0.264555 0.264596 0.179392 0.264555 0.179277 0.179392 0.0906502 0.179277 0.0905567 0.0906502 0 0.0905567 0 0 -0.0906502 0 -0.0905567 -0.0906502 -0.179392 -0.0905567 -0.179277 -0.179392 -0.264596 -0.179277 -0.264555 -0.264596 -0.34536 -0.264555 -0.345452 -0.34536 -0.422086 -0.345452 -0.422304 -0.422086 -0.496791 -0.422304 -0.497091 -0.496791 -0.572569 -0.497091 -0.572911 -0.572569 -0.652295 -0.572911 -0.652628 -0.652295 -0.737524 -0.652628 -0.73774 -0.737524 -0.828271 -0.73774 -0.8282 -0.828271 -0.923431 -0.8282 -0.922914 -0.923431 -1.02122 -0.922914 -1.02021 -1.02122 -1.11932 -1.02021 -1.11797 -1.11932 -1.21483 -1.11797 -1.21349 -1.21483 -1.30425 -1.21349 -1.30331 -1.30425 -1.38425 -1.30331 -1.38387 -1.38425 -1.4537 -1.38387 -1.45375 -1.4537 -1.51663 -1.45375 -1.51685 -1.51663 -1.5816 -1.51685 -1.58203 -1.5816 -1.65602 -1.58203 -1.65686 -1.65602 -1.74187 -1.65686 -1.74308 -1.74187 -1.83703 -1.74308 -1.83825 -1.83703 -1.93812 -1.83825 -1.93889 -1.93812 -2.04199 -1.93889 -2.04199 2.04199 1.93889 2.04199 1.94002 1.93889 1.83825 1.94002 1.84007 1.83825 1.74308 1.84007 1.74491 1.74308 1.65686 1.74491 1.65812 1.65686 1.58203 1.65812 1.58265 1.58203 1.51685 1.58265 1.51715 1.51685 1.45375 1.51715 1.45379 1.45375 1.38387 1.45379 1.38327 1.38387 1.30331 1.38327 1.30188 1.30331 1.21349 1.30188 1.21155 1.21349 1.11797 1.21155 1.1161 1.11797 1.02021 1.1161 1.01887 1.02021 0.922914 1.01887 0.922302 0.922914 0.8282 0.922302 0.828221 0.8282 0.73774 0.828221 0.738142 0.73774 0.652628 0.738142 0.653158 0.652628 0.572911 0.653158 0.573412 0.572911 0.497091 0.573412 0.497499 0.497091 0.422304 0.497499 0.42257 0.422304 0.345452 0.42257 0.345521 0.345452 0.264555 0.345521 0.264428 0.264555 0.179277 0.264428 0.179051 0.179277 0.0905567 0.179051 0.0903879 0.0905567 0 0.0903879 0 0 -0.0905567 0 -0.0903879 -0.0905567 -0.179277 -0.0903879 -0.179051 -0.179277 -0.264555 -0.179051 -0.264428 -0.264555 -0.345452 -0.264428 -0.345521 -0.345452 -0.422304 -0.345521 -0.42257 -0.422304 -0.497091 -0.42257 -0.497499 -0.497091 -0.572911 -0.497499 -0.573412 -0.572911 -0.652628 -0.573412 -0.653158 -0.652628 -0.73774 -0.653158 -0.738142 -0.73774 -0.8282 -0.738142 -0.828221 -0.8282 -0.922914 -0.828221 -0.922302 -0.922914 -1.02021 -0.922302 -1.01887 -1.02021 -1.11797 -1.01887 -1.1161 -1.11797 -1.21349 -1.1161 -1.21155 -1.21349 -1.30331 -1.21155 -1.30188 -1.30331 -1.38387 -1.30188 -1.38327 -1.38387 -1.45375 -1.38327 -1.45379 -1.45375 -1.51685 -1.45379 -1.51715 -1.51685 -1.58203 -1.51715 -1.58265 -1.58203 -1.65686 -1.58265 -1.65812 -1.65686 -1.74308 -1.65812 -1.74491 -1.74308 -1.83825 -1.74491 -1.84007 -1.83825 -1.93889 -1.84007 -1.94002 -1.93889 -2.04199 -1.94002 -2.04199 2.04199 1.94002 2.04199 1.94159 1.94002 1.84007 1.94159 1.84264 1.84007 1.74491 1.84264 1.74752 1.74491 1.65812 1.74752 1.65995 1.65812 1.58265 1.65995 1.58354 1.58265 1.51715 1.58354 1.51753 1.51715 1.45379 1.51753 1.45376 1.45379 1.38327 1.45376 1.38233 1.38327 1.30188 1.38233 1.29983 1.30188 1.21155 1.29983 1.20889 1.21155 1.1161 1.20889 1.11364 1.1161 1.01887 1.11364 1.01723 1.01887 0.922302 1.01723 0.921679 0.922302 0.828221 0.921679 0.82844 0.828221 0.738142 0.82844 0.738836 0.738142 0.653158 0.738836 0.653966 0.653158 0.573412 0.653966 0.574118 0.573412 0.497499 0.574118 0.49802 0.497499 0.42257 0.49802 0.422852 0.42257 0.345521 0.422852 0.345504 0.345521 0.264428 0.345504 0.264136 0.264428 0.179051 0.264136 0.178648 0.179051 0.0903879 0.178648 0.0901041 0.0903879 0 0.0901041 0 0 -0.0903879 0 -0.0901041 -0.0903879 -0.179051 -0.0901041 -0.178648 -0.179051 -0.264428 -0.178648 -0.264136 -0.264428 -0.345521 -0.264136 -0.345504 -0.345521 -0.42257 -0.345504 -0.422852 -0.42257 -0.497499 -0.422852 -0.49802 -0.497499 -0.573412 -0.49802 -0.574118 -0.573412 -0.653158 -0.574118 -0.653966 -0.653158 -0.738142 -0.653966 -0.738836 -0.738142 -0.828221 -0.738836 -0.82844 -0.828221 -0.922302 -0.82844 -0.921679 -0.922302 -1.01887 -0.921679 -1.01723 -1.01887 -1.1161 -1.01723 -1.11364 -1.1161 -1.21155 -1.11364 -1.20889 -1.21155 -1.30188 -1.20889 -1.29983 -1.30188 -1.38327 -1.29983 -1.38233 -1.38327 -1.45379 -1.38233 -1.45376 -1.45379 -1.51715 -1.45376 -1.51753 -1.51715 -1.58265 -1.51753 -1.58354 -1.58265 -1.65812 -1.58354 -1.65995 -1.65812 -1.74491 -1.65995 -1.74752 -1.74491 -1.84007 -1.74752 -1.84264 -1.84007 -1.94002 -1.84264 -1.94159 -1.94002 -2.04199 -1.94159 -2.04199 2.04199 1.94159 2.04199 1.94369 1.94159 1.84264 1.94369 1.84613 1.84264 1.74752 1.84613 1.75116 1.74752 1.65995 1.75116 1.66257 1.65995 1.58354 1.66257 1.58482 1.58354 1.51753 1.58482 1.518 1.51753 1.45376 1.518 1.45358 1.45376 1.38233 1.45358 1.38087 1.38233 1.29983 1.38087 1.29694 1.29983 1.20889 1.29694 1.20535 1.20889 1.11364 1.20535 1.11055 1.11364 1.01723 1.11055 1.01533 1.01723 0.921679 1.01533 0.921146 0.921679 0.82844 0.921146 0.828993 0.82844 0.738836 0.828993 0.739959 0.738836 0.653966 0.739959 0.655164 0.653966 0.574118 0.655164 0.575091 0.574118 0.49802 0.575091 0.498662 0.49802 0.422852 0.498662 0.423104 0.422852 0.345504 0.423104 0.345314 0.345504 0.264136 0.345314 0.263576 0.264136 0.178648 0.263576 0.177975 0.178648 0.0901041 0.177975 0.0896533 0.0901041 0 0.0896533 0 0 -0.0901041 0 -0.0896533 -0.0901041 -0.178648 -0.0896533 -0.177975 -0.178648 -0.264136 -0.177975 -0.263576 -0.264136 -0.345504 -0.263576 -0.345314 -0.345504 -0.422852 -0.345314 -0.423104 -0.422852 -0.49802 -0.423104 -0.498662 -0.49802 -0.574118 -0.498662 -0.575091 -0.574118 -0.653966 -0.575091 -0.655164 -0.653966 -0.738836 -0.655164 -0.739959 -0.738836 -0.82844 -0.739959 -0.828993 -0.82844 -0.921679 -0.828993 -0.921146 -0.921679 -1.01723 -0.921146 -1.01533 -1.01723 -1.11364 -1.01533 -1.11055 -1.11364 -1.20889 -1.11055 -1.20535 -1.20889 -1.29983 -1.20535 -1.29694 -1.29983 -1.38233 -1.29694 -1.38087 -1.38233 -1.45376 -1.38087 -1.45358 -1.45376 -1.51753 -1.45358 -1.518 -1.51753 -1.58354 -1.518 -1.58482 -1.58354 -1.65995 -1.58482 -1.66257 -1.65995 -1.74752 -1.66257 -1.75116 -1.74752 -1.84264 -1.75116 -1.84613 -1.84264 -1.94159 -1.84613 -1.94369 -1.94159 -2.04199 -1.94369 -2.04199 2.04199 1.94369 2.04199 1.94641 1.94369 1.84613 1.94641 1.85073 1.84613 1.75116 1.85073 1.75613 1.75116 1.66257 1.75613 1.66629 1.66257 1.58482 1.66629 1.58666 1.58482 1.518 1.58666 1.5186 1.518 1.45358 1.5186 1.45314 1.45358 1.38087 1.45314 1.37864 1.38087 1.29694 1.37864 1.29291 1.29694 1.20535 1.29291 1.20074 1.20535 1.11055 1.20074 1.10677 1.11055 1.01533 1.10677 1.01322 1.01533 0.921146 1.01322 0.920819 0.921146 0.828993 0.920819 0.830036 0.828993 0.739959 0.830036 0.741681 0.739959 0.655164 0.741681 0.656895 0.655164 0.575091 0.656895 0.576419 0.575091 0.498662 0.576419 0.499438 0.498662 0.423104 0.499438 0.423268 0.423104 0.345314 0.423268 0.34484 0.345314 0.263576 0.34484 0.262615 0.263576 0.177975 0.262615 0.17692 0.177975 0.0896533 0.17692 0.0889721 0.0896533 0 0.0889721 0 0 -0.0896533 0 -0.0889721 -0.0896533 -0.177975 -0.0889721 -0.17692 -0.177975 -0.263576 -0.17692 -0.262615 -0.263576 -0.345314 -0.262615 -0.34484 -0.345314 -0.423104 -0.34484 -0.423268 -0.423104 -0.498662 -0.423268 -0.499438 -0.498662 -0.575091 -0.499438 -0.576419 -0.575091 -0.655164 -0.576419 -0.656895 -0.655164 -0.739959 -0.656895 -0.741681 -0.739959 -0.828993 -0.741681 -0.830036 -0.828993 -0.921146 -0.830036 -0.920819 -0.921146 -1.01533 -0.920819 -1.01322 -1.01533 -1.11055 -1.01322 -1.10677 -1.11055 -1.20535 -1.10677 -1.20074 -1.20535 -1.29694 -1.20074 -1.29291 -1.29694 -1.38087 -1.29291 -1.37864 -1.38087 -1.45358 -1.37864 -1.45314 -1.45358 -1.518 -1.45314 -1.5186 -1.518 -1.58482 -1.5186 -1.58666 -1.58482 -1.66257 -1.58666 -1.66629 -1.66257 -1.75116 -1.66629 -1.75613 -1.75116 -1.84613 -1.75613 -1.85073 -1.84613 -1.94369 -1.85073 -1.94641 -1.94369 -2.04199 -1.94641 -2.04199 2.04199 1.94641 2.04199 1.94982 1.94641 1.85073 1.94982 1.85667 1.85073 1.75613 1.85667 1.76279 1.75613 1.66629 1.76279 1.6715 1.66629 1.58666 1.6715 1.58932 1.58666 1.5186 1.58932 1.51935 1.5186 1.45314 1.51935 1.45227 1.45314 1.37864 1.45227 1.37526 1.37864 1.29291 1.37526 1.28738 1.29291 1.20074 1.28738 1.19484 1.20074 1.10677 1.19484 1.10225 1.10677 1.01322 1.10225 1.01096 1.01322 0.920819 1.01096 0.920836 0.920819 0.830036 0.920836 0.831753 0.830036 0.741681 0.831753 0.744205 0.741681 0.656895 0.744205 0.659342 0.656895 0.576419 0.659342 0.578213 0.576419 0.499438 0.578213 0.500365 0.499438 0.423268 0.500365 0.423268 0.423268 0.34484 0.423268 0.343934 0.34484 0.262615 0.343934 0.261086 0.262615 0.17692 0.261086 0.175346 0.17692 0.0889721 0.175346 0.0879867 0.0889721 0 0.0879867 0 0 -0.0889721 0 -0.0879867 -0.0889721 -0.17692 -0.0879867 -0.175346 -0.17692 -0.262615 -0.175346 -0.261086 -0.262615 -0.34484 -0.261086 -0.343934 -0.34484 -0.423268 -0.343934 -0.423268 -0.423268 -0.499438 -0.423268 -0.500365 -0.499438 -0.576419 -0.500365 -0.578213 -0.576419 -0.656895 -0.578213 -0.659342 -0.656895 -0.741681 -0.659342 -0.744205 -0.741681 -0.830036 -0.744205 -0.831753 -0.830036 -0.920819 -0.831753 -0.920836 -0.920819 -1.01322 -0.920836 -1.01096 -1.01322 -1.10677 -1.01096 -1.10225 -1.10677 -1.20074 -1.10225 -1.19484 -1.20074 -1.29291 -1.19484 -1.28738 -1.29291 -1.37864 -1.28738 -1.37526 -1.37864 -1.45314 -1.37526 -1.45227 -1.45314 -1.5186 -1.45227 -1.51935 -1.5186 -1.58666 -1.51935 -1.58932 -1.58666 -1.66629 -1.58932 -1.6715 -1.66629 -1.75613 -1.6715 -1.76279 -1.75613 -1.85073 -1.76279 -1.85667 -1.85073 -1.94641 -1.85667 -1.94982 -1.94641 -2.04199 -1.94982 -2.04199 2.04199 1.94982 2.04199 1.95397 1.94982 1.85667 1.95397 1.86412 1.85667 1.76279 1.86412 1.77156 1.76279 1.6715 1.77156 1.67875 1.6715 1.58932 1.67875 1.59315 1.58932 1.51935 1.59315 1.5203 1.51935 1.45227 1.5203 1.4507 1.45227 1.37526 1.4507 1.37025 1.37526 1.28738 1.37025 1.27988 1.28738 1.19484 1.27988 1.18742 1.19484 1.10225 1.18742 1.09697 1.10225 1.01096 1.09697 1.00864 1.01096 0.920836 1.00864 0.921344 0.920836 0.831753 0.921344 0.834345 0.831753 0.744205 0.834345 0.747769 0.744205 0.659342 0.747769 0.662729 0.659342 0.578213 0.662729 0.58062 0.578213 0.500365 0.58062 0.501468 0.500365 0.423268 0.501468 0.423001 0.423268 0.343934 0.423001 0.342406 0.343934 0.261086 0.342406 0.25878 0.261086 0.175346 0.25878 0.173093 0.175346 0.0879867 0.173093 0.0866152 0.0879867 0 0.0866152 0 0 -0.0879867 0 -0.0866152 -0.0879867 -0.175346 -0.0866152 -0.173093 -0.175346 -0.261086 -0.173093 -0.25878 -0.261086 -0.343934 -0.25878 -0.342406 -0.343934 -0.423268 -0.342406 -0.423001 -0.423268 -0.500365 -0.423001 -0.501468 -0.500365 -0.578213 -0.501468 -0.58062 -0.578213 -0.659342 -0.58062 -0.662729 -0.659342 -0.744205 -0.662729 -0.747769 -0.744205 -0.831753 -0.747769 -0.834345 -0.831753 -0.920836 -0.834345 -0.921344 -0.920836 -1.01096 -0.921344 -1.00864 -1.01096 -1.10225 -1.00864 -1.09697 -1.10225 -1.19484 -1.09697 -1.18742 -1.19484 -1.28738 -1.18742 -1.27988 -1.28738 -1.37526 -1.27988 -1.37025 -1.37526 -1.45227 -1.37025 -1.4507 -1.45227 -1.51935 -1.4507 -1.5203 -1.51935 -1.58932 -1.5203 -1.59315 -1.58932 -1.6715 -1.59315 -1.67875 -1.6715 -1.76279 -1.67875 -1.77156 -1.76279 -1.85667 -1.77156 -1.86412 -1.85667 -1.94982 -1.86412 -1.95397 -1.94982 -2.04199 -1.95397 -2.04199 2.04199 1.95397 2.04199 1.95888 1.95397 1.86412 1.95888 1.87322 1.86412 1.77156 1.87322 1.78289 1.77156 1.67875 1.78289 1.68875 1.67875 1.59315 1.68875 1.59871 1.59315 1.5203 1.59871 1.52153 1.5203 1.4507 1.52153 1.44804 1.4507 1.37025 1.44804 1.36288 1.37025 1.27988 1.36288 1.26987 1.27988 1.18742 1.26987 1.1783 1.18742 1.09697 1.1783 1.09096 1.09697 1.00864 1.09096 1.00636 1.00864 0.921344 1.00636 0.922499 0.921344 0.834345 0.922499 0.838025 0.834345 0.747769 0.838025 0.75265 0.747769 0.662729 0.75265 0.667343 0.662729 0.58062 0.667343 0.583835 0.58062 0.501468 0.583835 0.502776 0.501468 0.423001 0.502776 0.422325 0.423001 0.342406 0.422325 0.340005 0.342406 0.25878 0.340005 0.255443 0.25878 0.173093 0.255443 0.169982 0.173093 0.0866152 0.169982 0.0847716 0.0866152 0 0.0847716 0 0 -0.0866152 0 -0.0847716 -0.0866152 -0.173093 -0.0847716 -0.169982 -0.173093 -0.25878 -0.169982 -0.255443 -0.25878 -0.342406 -0.255443 -0.340005 -0.342406 -0.423001 -0.340005 -0.422325 -0.423001 -0.501468 -0.422325 -0.502776 -0.501468 -0.58062 -0.502776 -0.583835 -0.58062 -0.662729 -0.583835 -0.667343 -0.662729 -0.747769 -0.667343 -0.75265 -0.747769 -0.834345 -0.75265 -0.838025 -0.834345 -0.921344 -0.838025 -0.922499 -0.921344 -1.00864 -0.922499 -1.00636 -1.00864 -1.09697 -1.00636 -1.09096 -1.09697 -1.18742 -1.09096 -1.1783 -1.18742 -1.27988 -1.1783 -1.26987 -1.27988 -1.37025 -1.26987 -1.36288 -1.37025 -1.4507 -1.36288 -1.44804 -1.4507 -1.5203 -1.44804 -1.52153 -1.5203 -1.59315 -1.52153 -1.59871 -1.59315 -1.67875 -1.59871 -1.68875 -1.67875 -1.77156 -1.68875 -1.78289 -1.77156 -1.86412 -1.78289 -1.87322 -1.86412 -1.95397 -1.87322 -1.95888 -1.95397 -2.04199 -1.95888 -2.04199 2.04199 1.95888 2.04199 1.96449 1.95888 1.87322 1.96449 1.88399 1.87322 1.78289 1.88399 1.79718 1.78289 1.68875 1.79718 1.70247 1.68875 1.59871 1.70247 1.60686 1.59871 1.52153 1.60686 1.52318 1.52153 1.44804 1.52318 1.44364 1.44804 1.36288 1.44364 1.35216 1.36288 1.26987 1.35216 1.25675 1.26987 1.1783 1.25675 1.16739 1.1783 1.09096 1.16739 1.08432 1.09096 1.00636 1.08432 1.00428 1.00636 0.922499 1.00428 0.924457 0.922499 0.838025 0.924457 0.843011 0.838025 0.75265 0.843011 0.759157 0.75265 0.667343 0.759157 0.673543 0.667343 0.583835 0.673543 0.588126 0.583835 0.502776 0.588126 0.50433 0.502776 0.422325 0.50433 0.421036 0.422325 0.340005 0.421036 0.336394 0.340005 0.255443 0.336394 0.250766 0.255443 0.169982 0.250766 0.165818 0.169982 0.0847716 0.165818 0.0823726 0.0847716 0 0.0823726 0 0 -0.0847716 0 -0.0823726 -0.0847716 -0.169982 -0.0823726 -0.165818 -0.169982 -0.255443 -0.165818 -0.250766 -0.255443 -0.340005 -0.250766 -0.336394 -0.340005 -0.422325 -0.336394 -0.421036 -0.422325 -0.502776 -0.421036 -0.50433 -0.502776 -0.583835 -0.50433 -0.588126 -0.583835 -0.667343 -0.588126 -0.673543 -0.667343 -0.75265 -0.673543 -0.759157 -0.75265 -0.838025 -0.759157 -0.843011 -0.838025 -0.922499 -0.843011 -0.924457 -0.922499 -1.00636 -0.924457 -1.00428 -1.00636 -1.09096 -1.00428 -1.08432 -1.09096 -1.1783 -1.08432 -1.16739 -1.1783 -1.26987 -1.16739 -1.25675 -1.26987 -1.36288 -1.25675 -1.35216 -1.36288 -1.44804 -1.35216 -1.44364 -1.44804 -1.52153 -1.44364 -1.52318 -1.52153 -1.59871 -1.52318 -1.60686 -1.59871 -1.68875 -1.60686 -1.70247 -1.68875 -1.78289 -1.70247 -1.79718 -1.78289 -1.87322 -1.79718 -1.88399 -1.87322 -1.95888 -1.88399 -1.96449 -1.95888 -2.04199 -1.96449 -2.04199 2.04199 1.96449 2.04199 1.97073 1.96449 1.88399 1.97073 1.89629 1.88399 1.79718 1.89629 1.81462 1.79718 1.70247 1.81462 1.72111 1.70247 1.60686 1.72111 1.61903 1.60686 1.52318 1.61903 1.52548 1.52318 1.44364 1.52548 1.43636 1.44364 1.35216 1.43636 1.33658 1.35216 1.25675 1.33658 1.24 1.25675 1.16739 1.24 1.1548 1.16739 1.08432 1.1548 1.07722 1.08432 1.00428 1.07722 1.00251 1.00428 0.924457 1.00251 0.927361 0.924457 0.843011 0.927361 0.849502 0.843011 0.759157 0.849502 0.767627 0.759157 0.673543 0.767627 0.681791 0.673543 0.588126 0.681791 0.59388 0.588126 0.50433 0.59388 0.506193 0.50433 0.421036 0.506193 0.41883 0.421036 0.336394 0.41883 0.33111 0.336394 0.250766 0.33111 0.244382 0.250766 0.165818 0.244382 0.160409 0.165818 0.0823726 0.160409 0.0793463 0.0823726 0 0.0793463 0 0 -0.0823726 0 -0.0793463 -0.0823726 -0.165818 -0.0793463 -0.160409 -0.165818 -0.250766 -0.160409 -0.244382 -0.250766 -0.336394 -0.244382 -0.33111 -0.336394 -0.421036 -0.33111 -0.41883 -0.421036 -0.50433 -0.41883 -0.506193 -0.50433 -0.588126 -0.506193 -0.59388 -0.588126 -0.673543 -0.59388 -0.681791 -0.673543 -0.759157 -0.681791 -0.767627 -0.759157 -0.843011 -0.767627 -0.849502 -0.843011 -0.924457 -0.849502 -0.927361 -0.924457 -1.00428 -0.927361 -1.00251 -1.00428 -1.08432 -1.00251 -1.07722 -1.08432 -1.16739 -1.07722 -1.1548 -1.16739 -1.25675 -1.1548 -1.24 -1.25675 -1.35216 -1.24 -1.33658 -1.35216 -1.44364 -1.3