# vtk DataFile Version 3.0
#This file was generated by the deal.II library on 2017/9/27 at 13:18:20
ASCII
DATASET UNSTRUCTURED_GRID

POINTS 2688 double
-3.87473 -6.84132e-23 0
-3.73964 0 0
-3.87473 0.0972677 0
-3.73931 0.0957686 0
-3.73964 0 0
-3.60196 0 0
-3.73931 0.0957686 0
-3.60143 0.0910851 0
-3.60196 0 0
-3.45791 0 0
-3.60143 0.0910851 0
-3.4574 0.0829687 0
-3.45791 0 0
-3.30206 0 0
-3.4574 0.0829687 0
-3.30174 0.0721147 0
-3.30206 0 0
-3.129 0 0
-3.30174 0.0721147 0
-3.12887 0.0615275 0
-3.129 0 0
-2.94016 0 0
-3.12887 0.0615275 0
-2.94009 0.0563857 0
-2.94016 0 0
-2.75006 0 0
-2.94009 0.0563857 0
-2.75007 0.0600766 0
-2.75006 0 0
-2.57363 0 0
-2.75007 0.0600766 0
-2.57389 0.0691214 0
-2.57363 0 0
-2.41267 0 0
-2.57389 0.0691214 0
-2.41321 0.0782662 0
-2.41267 0 0
-2.26152 0 0
-2.41321 0.0782662 0
-2.2622 0.0845309 0
-2.26152 0 0
-2.11408 0 0
-2.2622 0.0845309 0
-2.11473 0.0874219 0
-2.11408 0 0
-1.96608 0 0
-2.11473 0.0874219 0
-1.96658 0.0876516 0
-1.96608 0 0
-1.81502 0 0
-1.96658 0.0876516 0
-1.81534 0.0861889 0
-1.81502 0 0
-1.6598 0 0
-1.81534 0.0861889 0
-1.65994 0.0838883 0
-1.6598 0 0
-1.50025 0 0
-1.65994 0.0838883 0
-1.50026 0.0814077 0
-1.50025 0 0
-1.3369 0 0
-1.50026 0.0814077 0
-1.33683 0.0792067 0
-1.3369 0 0
-1.17071 0 0
-1.33683 0.0792067 0
-1.1706 0.0775554 0
-1.17071 0 0
-1.00283 0 0
-1.1706 0.0775554 0
-1.00271 0.0765484 0
-1.00283 0 0
-0.834324 0 0
-1.00271 0.0765484 0
-0.834222 0.0761352 0
-0.834324 0 0
-0.666031 0 0
-0.834222 0.0761352 0
-0.665952 0.076168 0
-0.666031 0 0
-0.498435 0 0
-0.665952 0.076168 0
-0.498381 0.0764558 0
-0.498435 0 0
-0.331682 0 0
-0.498381 0.0764558 0
-0.33165 0.0768126 0
-0.331682 0 0
-0.165641 0 0
-0.33165 0.0768126 0
-0.165626 0.0770893 0
-0.165641 0 0
0 0 0
-0.165626 0.0770893 0
0 0.0771922 0
0 0 0
0.165641 5.04602e-24 0
0 0.0771922 0
0.165626 0.0770893 0
0.165641 5.04602e-24 0
0.331682 9.95809e-24 0
0.165626 0.0770893 0
0.33165 0.0768126 0
0.331682 9.95809e-24 0
0.498435 -2.75149e-23 0
0.33165 0.0768126 0
0.498381 0.0764558 0
0.498435 -2.75149e-23 0
0.666031 -1.65361e-23 0
0.498381 0.0764558 0
0.665952 0.076168 0
0.666031 -1.65361e-23 0
0.834324 -4.13194e-23 0
0.665952 0.076168 0
0.834222 0.0761352 0
0.834324 -4.13194e-23 0
1.00283 1.48151e-23 0
0.834222 0.0761352 0
1.00271 0.0765484 0
1.00283 1.48151e-23 0
1.17071 2.1223e-23 0
1.00271 0.0765484 0
1.1706 0.0775554 0
1.17071 2.1223e-23 0
1.3369 6.95796e-24 0
1.1706 0.0775554 0
1.33683 0.0792067 0
1.3369 6.95796e-24 0
1.50025 -4.6621e-23 0
1.33683 0.0792067 0
1.50026 0.0814077 0
1.50025 -4.6621e-23 0
1.6598 -1.96813e-23 0
1.50026 0.0814077 0
1.65994 0.0838883 0
1.6598 -1.96813e-23 0
1.81502 -4.58811e-23 0
1.65994 0.0838883 0
1.81534 0.0861889 0
1.81502 -4.58811e-23 0
1.96608 -1.35591e-23 0
1.81534 0.0861889 0
1.96658 0.0876516 0
1.96608 -1.35591e-23 0
2.11408 6.29009e-23 0
1.96658 0.0876516 0
2.11473 0.0874219 0
2.11408 6.29009e-23 0
2.26152 4.17591e-23 0
2.11473 0.0874219 0
2.2622 0.0845309 0
2.26152 4.17591e-23 0
2.41267 3.17087e-23 0
2.2622 0.0845309 0
2.41321 0.0782662 0
2.41267 3.17087e-23 0
2.57363 1.44605e-23 0
2.41321 0.0782662 0
2.57389 0.0691214 0
2.57363 1.44605e-23 0
2.75006 2.91733e-23 0
2.57389 0.0691214 0
2.75007 0.0600766 0
2.75006 2.91733e-23 0
2.94016 1.43485e-23 0
2.75007 0.0600766 0
2.94009 0.0563857 0
2.94016 1.43485e-23 0
3.129 2.17691e-23 0
2.94009 0.0563857 0
3.12887 0.0615275 0
3.129 2.17691e-23 0
3.30206 -7.01606e-24 0
3.12887 0.0615275 0
3.30174 0.0721147 0
3.30206 -7.01606e-24 0
3.45791 -2.96578e-23 0
3.30174 0.0721147 0
3.4574 0.0829687 0
3.45791 -2.96578e-23 0
3.60196 -5.03949e-23 0
3.4574 0.0829687 0
3.60143 0.0910851 0
3.60196 -5.03949e-23 0
3.73964 3.94463e-23 0
3.60143 0.0910851 0
3.73931 0.0957686 0
3.73964 3.94463e-23 0
3.87473 -6.84132e-23 0
3.73931 0.0957686 0
3.87473 0.0972677 0
-3.87473 0.0972677 0
-3.73931 0.0957686 0
-3.87473 0.192371 0
-3.73832 0.189584 0
-3.73931 0.0957686 0
-3.60143 0.0910851 0
-3.73832 0.189584 0
-3.59981 0.180843 0
-3.60143 0.0910851 0
-3.4574 0.0829687 0
-3.59981 0.180843 0
-3.4558 0.165571 0
-3.4574 0.0829687 0
-3.30174 0.0721147 0
-3.4558 0.165571 0
-3.30073 0.144888 0
-3.30174 0.0721147 0
-3.12887 0.0615275 0
-3.30073 0.144888 0
-3.12851 0.124394 0
-3.12887 0.0615275 0
-2.94009 0.0563857 0
-3.12851 0.124394 0
-2.93991 0.114315 0
-2.94009 0.0563857 0
-2.75007 0.0600766 0
-2.93991 0.114315 0
-2.75009 0.121631 0
-2.75007 0.0600766 0
-2.57389 0.0691214 0
-2.75009 0.121631 0
-2.57466 0.139222 0
-2.57389 0.0691214 0
-2.41321 0.0782662 0
-2.57466 0.139222 0
-2.41481 0.156712 0
-2.41321 0.0782662 0
-2.2622 0.0845309 0
-2.41481 0.156712 0
-2.26419 0.16852 0
-2.2622 0.0845309 0
-2.11473 0.0874219 0
-2.26419 0.16852 0
-2.11659 0.173888 0
-2.11473 0.0874219 0
-1.96658 0.0876516 0
-2.11659 0.173888 0
-1.96797 0.174245 0
-1.96658 0.0876516 0
-1.81534 0.0861889 0
-1.96797 0.174245 0
-1.81617 0.171434 0
-1.81534 0.0861889 0
-1.65994 0.0838883 0
-1.81617 0.171434 0
-1.66029 0.167057 0
-1.65994 0.0838883 0
-1.50026 0.0814077 0
-1.66029 0.167057 0
-1.50026 0.16235 0
-1.50026 0.0814077 0
-1.33683 0.0792067 0
-1.50026 0.16235 0
-1.33661 0.158179 0
-1.33683 0.0792067 0
-1.1706 0.0775554 0
-1.33661 0.158179 0
-1.17029 0.155055 0
-1.1706 0.0775554 0
-1.00271 0.0765484 0
-1.17029 0.155055 0
-1.00239 0.153156 0
-1.00271 0.0765484 0
-0.834222 0.0761352 0
-1.00239 0.153156 0
-0.833937 0.152387 0
-0.834222 0.0761352 0
-0.665952 0.076168 0
-0.833937 0.152387 0
-0.665734 0.152463 0
-0.665952 0.076168 0
-0.498381 0.0764558 0
-0.665734 0.152463 0
-0.498234 0.15302 0
-0.498381 0.0764558 0
-0.33165 0.0768126 0
-0.498234 0.15302 0
-0.331563 0.153705 0
-0.33165 0.0768126 0
-0.165626 0.0770893 0
-0.331563 0.153705 0
-0.165587 0.154234 0
-0.165626 0.0770893 0
0 0.0771922 0
-0.165587 0.154234 0
0 0.154431 0
0 0.0771922 0
0.165626 0.0770893 0
0 0.154431 0
0.165587 0.154234 0
0.165626 0.0770893 0
0.33165 0.0768126 0
0.165587 0.154234 0
0.331563 0.153705 0
0.33165 0.0768126 0
0.498381 0.0764558 0
0.331563 0.153705 0
0.498234 0.15302 0
0.498381 0.0764558 0
0.665952 0.076168 0
0.498234 0.15302 0
0.665734 0.152463 0
0.665952 0.076168 0
0.834222 0.0761352 0
0.665734 0.152463 0
0.833937 0.152387 0
0.834222 0.0761352 0
1.00271 0.0765484 0
0.833937 0.152387 0
1.00239 0.153156 0
1.00271 0.0765484 0
1.1706 0.0775554 0
1.00239 0.153156 0
1.17029 0.155055 0
1.1706 0.0775554 0
1.33683 0.0792067 0
1.17029 0.155055 0
1.33661 0.158179 0
1.33683 0.0792067 0
1.50026 0.0814077 0
1.33661 0.158179 0
1.50026 0.16235 0
1.50026 0.0814077 0
1.65994 0.0838883 0
1.50026 0.16235 0
1.66029 0.167057 0
1.65994 0.0838883 0
1.81534 0.0861889 0
1.66029 0.167057 0
1.81617 0.171434 0
1.81534 0.0861889 0
1.96658 0.0876516 0
1.81617 0.171434 0
1.96797 0.174245 0
1.96658 0.0876516 0
2.11473 0.0874219 0
1.96797 0.174245 0
2.11659 0.173888 0
2.11473 0.0874219 0
2.2622 0.0845309 0
2.11659 0.173888 0
2.26419 0.16852 0
2.2622 0.0845309 0
2.41321 0.0782662 0
2.26419 0.16852 0
2.41481 0.156712 0
2.41321 0.0782662 0
2.57389 0.0691214 0
2.41481 0.156712 0
2.57466 0.139222 0
2.57389 0.0691214 0
2.75007 0.0600766 0
2.57466 0.139222 0
2.75009 0.121631 0
2.75007 0.0600766 0
2.94009 0.0563857 0
2.75009 0.121631 0
2.93991 0.114315 0
2.94009 0.0563857 0
3.12887 0.0615275 0
2.93991 0.114315 0
3.12851 0.124394 0
3.12887 0.0615275 0
3.30174 0.0721147 0
3.12851 0.124394 0
3.30073 0.144888 0
3.30174 0.0721147 0
3.4574 0.0829687 0
3.30073 0.144888 0
3.4558 0.165571 0
3.4574 0.0829687 0
3.60143 0.0910851 0
3.4558 0.165571 0
3.59981 0.180843 0
3.60143 0.0910851 0
3.73931 0.0957686 0
3.59981 0.180843 0
3.73832 0.189584 0
3.73931 0.0957686 0
3.87473 0.0972677 0
3.73832 0.189584 0
3.87473 0.192371 0
-3.87473 0.192371 0
-3.73832 0.189584 0
-3.87473 0.285464 0
-3.73667 0.281607 0
-3.73832 0.189584 0
-3.59981 0.180843 0
-3.73667 0.281607 0
-3.59711 0.269448 0
-3.59981 0.180843 0
-3.4558 0.165571 0
-3.59711 0.269448 0
-3.45311 0.247968 0
-3.4558 0.165571 0
-3.30073 0.144888 0
-3.45311 0.247968 0
-3.29906 0.218353 0
-3.30073 0.144888 0
-3.12851 0.124394 0
-3.29906 0.218353 0
-3.12797 0.188369 0
-3.12851 0.124394 0
-2.93991 0.114315 0
-3.12797 0.188369 0
-2.93963 0.173363 0
-2.93991 0.114315 0
-2.75009 0.121631 0
-2.93963 0.173363 0
-2.75009 0.184445 0
-2.75009 0.121631 0
-2.57466 0.139222 0
-2.75009 0.184445 0
-2.57594 0.210349 0
-2.57466 0.139222 0
-2.41481 0.156712 0
-2.57594 0.210349 0
-2.41745 0.235497 0
-2.41481 0.156712 0
-2.26419 0.16852 0
-2.41745 0.235497 0
-2.26741 0.252126 0
-2.26419 0.16852 0
-2.11659 0.173888 0
-2.26741 0.252126 0
-2.11951 0.259519 0
-2.11659 0.173888 0
-1.96797 0.174245 0
-2.11951 0.259519 0
-1.97011 0.259863 0
-1.96797 0.174245 0
-1.81617 0.171434 0
-1.97011 0.259863 0
-1.81744 0.255783 0
-1.81617 0.171434 0
-1.66029 0.167057 0
-1.81744 0.255783 0
-1.6608 0.249527 0
-1.66029 0.167057 0
-1.50026 0.16235 0
-1.6608 0.249527 0
-1.50023 0.242825 0
-1.50026 0.16235 0
-1.33661 0.158179 0
-1.50023 0.242825 0
-1.33626 0.236899 0
-1.33661 0.158179 0
-1.17029 0.155055 0
-1.33626 0.236899 0
-1.16979 0.232474 0
-1.17029 0.155055 0
-1.00239 0.153156 0
-1.16979 0.232474 0
-1.00187 0.229802 0
-1.00239 0.153156 0
-0.833937 0.152387 0
-1.00187 0.229802 0
-0.833494 0.228738 0
-0.833937 0.152387 0
-0.665734 0.152463 0
-0.833494 0.228738 0
-0.665399 0.228876 0
-0.665734 0.152463 0
-0.498234 0.15302 0
-0.665399 0.228876 0
-0.49801 0.229692 0
-0.498234 0.15302 0
-0.331563 0.153705 0
-0.49801 0.229692 0
-0.331433 0.230681 0
-0.331563 0.153705 0
-0.165587 0.154234 0
-0.331433 0.230681 0
-0.16553 0.231443 0
-0.165587 0.154234 0
0 0.154431 0
-0.16553 0.231443 0
0 0.231725 0
0 0.154431 0
0.165587 0.154234 0
0 0.231725 0
0.16553 0.231443 0
0.165587 0.154234 0
0.331563 0.153705 0
0.16553 0.231443 0
0.331433 0.230681 0
0.331563 0.153705 0
0.498234 0.15302 0
0.331433 0.230681 0
0.49801 0.229692 0
0.498234 0.15302 0
0.665734 0.152463 0
0.49801 0.229692 0
0.665399 0.228876 0
0.665734 0.152463 0
0.833937 0.152387 0
0.665399 0.228876 0
0.833494 0.228738 0
0.833937 0.152387 0
1.00239 0.153156 0
0.833494 0.228738 0
1.00187 0.229802 0
[...]
POINT_DATA 2688
SCALARS x1_displacement double 1
LOOKUP_TABLE default
1.75734 1.65776 1.75734 1.65808 1.65776 1.56077 1.65808 1.5613 1.56077 1.47015 1.5613 1.47066 1.47015 1.39133 1.47066 1.39165 1.39133 1.32972 1.39165 1.32985 1.32972 1.28389 1.32985 1.28396 1.28389 1.23932 1.28396 1.23931 1.23932 1.18109 1.23931 1.18083 1.18109 1.10738 1.18083 1.10684 1.10738 1.02386 1.10684 1.02318 1.02386 0.936627 1.02318 0.935976 0.936627 0.849961 0.935976 0.84946 0.849961 0.766346 0.84946 0.766035 0.766346 0.686903 0.766035 0.686763 0.686903 0.611783 0.686763 0.611772 0.611783 0.540461 0.611772 0.540531 0.540461 0.471978 0.540531 0.472086 0.471978 0.405193 0.472086 0.405308 0.405193 0.339026 0.405308 0.339128 0.339026 0.272648 0.339128 0.272727 0.272648 0.205574 0.272727 0.205628 0.205574 0.137657 0.205628 0.137689 0.137657 0.0690289 0.137689 0.0690436 0.0690289 0 0.0690436 0 0 -0.0690289 0 -0.0690436 -0.0690289 -0.137657 -0.0690436 -0.137689 -0.137657 -0.205574 -0.137689 -0.205628 -0.205574 -0.272648 -0.205628 -0.272727 -0.272648 -0.339026 -0.272727 -0.339128 -0.339026 -0.405193 -0.339128 -0.405308 -0.405193 -0.471978 -0.405308 -0.472086 -0.471978 -0.540461 -0.472086 -0.540531 -0.540461 -0.611783 -0.540531 -0.611772 -0.611783 -0.686903 -0.611772 -0.686763 -0.686903 -0.766346 -0.686763 -0.766035 -0.766346 -0.849961 -0.766035 -0.84946 -0.849961 -0.936627 -0.84946 -0.935976 -0.936627 -1.02386 -0.935976 -1.02318 -1.02386 -1.10738 -1.02318 -1.10684 -1.10738 -1.18109 -1.10684 -1.18083 -1.18109 -1.23932 -1.18083 -1.23931 -1.23932 -1.28389 -1.23931 -1.28396 -1.28389 -1.32972 -1.28396 -1.32985 -1.32972 -1.39133 -1.32985 -1.39165 -1.39133 -1.47015 -1.39165 -1.47066 -1.47015 -1.56077 -1.47066 -1.5613 -1.56077 -1.65776 -1.5613 -1.65808 -1.65776 -1.75734 -1.65808 -1.75734 1.75734 1.65808 1.75734 1.65908 1.65808 1.5613 1.65908 1.56292 1.5613 1.47066 1.56292 1.47226 1.47066 1.39165 1.47226 1.39266 1.39165 1.32985 1.39266 1.33021 1.32985 1.28396 1.33021 1.28414 1.28396 1.23931 1.28414 1.23929 1.23931 1.18083 1.23929 1.18006 1.18083 1.10684 1.18006 1.10524 1.10684 1.02318 1.10524 1.02119 1.02318 0.935976 1.02119 0.934124 0.935976 0.84946 0.934124 0.848071 0.84946 0.766035 0.848071 0.765195 0.766035 0.686763 0.765195 0.686408 0.686763 0.611772 0.686408 0.61177 0.611772 0.540531 0.61177 0.540745 0.540531 0.472086 0.540745 0.4724 0.472086 0.405308 0.4724 0.405634 0.405308 0.339128 0.405634 0.339413 0.339128 0.272727 0.339413 0.272945 0.272727 0.205628 0.272945 0.205775 0.205628 0.137689 0.205775 0.137776 0.137689 0.0690436 0.137776 0.0690826 0.0690436 0 0.0690826 0 0 -0.0690436 0 -0.0690826 -0.0690436 -0.137689 -0.0690826 -0.137776 -0.137689 -0.205628 -0.137776 -0.205775 -0.205628 -0.272727 -0.205775 -0.272945 -0.272727 -0.339128 -0.272945 -0.339413 -0.339128 -0.405308 -0.339413 -0.405634 -0.405308 -0.472086 -0.405634 -0.4724 -0.472086 -0.540531 -0.4724 -0.540745 -0.540531 -0.611772 -0.540745 -0.61177 -0.611772 -0.686763 -0.61177 -0.686408 -0.686763 -0.766035 -0.686408 -0.765195 -0.766035 -0.84946 -0.765195 -0.848071 -0.84946 -0.935976 -0.848071 -0.934124 -0.935976 -1.02318 -0.934124 -1.02119 -1.02318 -1.10684 -1.02119 -1.10524 -1.10684 -1.18083 -1.10524 -1.18006 -1.18083 -1.23931 -1.18006 -1.23929 -1.23931 -1.28396 -1.23929 -1.28414 -1.28396 -1.32985 -1.28414 -1.33021 -1.32985 -1.39165 -1.33021 -1.39266 -1.39165 -1.47066 -1.39266 -1.47226 -1.47066 -1.5613 -1.47226 -1.56292 -1.5613 -1.65808 -1.56292 -1.65908 -1.65808 -1.75734 -1.65908 -1.75734 1.75734 1.65908 1.75734 1.66073 1.65908 1.56292 1.66073 1.56562 1.56292 1.47226 1.56562 1.47495 1.47226 1.39266 1.47495 1.39433 1.39266 1.33021 1.39433 1.33075 1.33021 1.28414 1.33075 1.28442 1.28414 1.23929 1.28442 1.23929 1.23929 1.18006 1.23929 1.17878 1.18006 1.10524 1.17878 1.1026 1.10524 1.02119 1.1026 1.01797 1.02119 0.934124 1.01797 0.9312 0.934124 0.848071 0.9312 0.845926 0.848071 0.765195 0.845926 0.763931 0.765195 0.686408 0.763931 0.685899 0.686408 0.61177 0.685899 0.611804 0.61177 0.540745 0.611804 0.541104 0.540745 0.4724 0.541104 0.472902 0.4724 0.405634 0.472902 0.406149 0.405634 0.339413 0.406149 0.339856 0.339413 0.272945 0.339856 0.27328 0.272945 0.205775 0.27328 0.205999 0.205775 0.137776 0.205999 0.137906 0.137776 0.0690826 0.137906 0.0691404 0.0690826 0 0.0691404 0 0 -0.0690826 0 -0.0691404 -0.0690826 -0.137776 -0.0691404 -0.137906 -0.137776 -0.205775 -0.137906 -0.205999 -0.205775 -0.272945 -0.205999 -0.27328 -0.272945 -0.339413 -0.27328 -0.339856 -0.339413 -0.405634 -0.339856 -0.406149 -0.405634 -0.4724 -0.406149 -0.472902 -0.4724 -0.540745 -0.472902 -0.541104 -0.540745 -0.61177 -0.541104 -0.611804 -0.61177 -0.686408 -0.611804 -0.685899 -0.686408 -0.765195 -0.685899 -0.763931 -0.765195 -0.848071 -0.763931 -0.845926 -0.848071 -0.934124 -0.845926 -0.9312 -0.934124 -1.02119 -0.9312 -1.01797 -1.02119 -1.10524 -1.01797 -1.1026 -1.10524 -1.18006 -1.1026 -1.17878 -1.18006 -1.23929 -1.17878 -1.23929 -1.23929 -1.28414 -1.23929 -1.28442 -1.28414 -1.33021 -1.28442 -1.33075 -1.33021 -1.39266 -1.33075 -1.39433 -1.39266 -1.47226 -1.39433 -1.47495 -1.47226 -1.56292 -1.47495 -1.56562 -1.56292 -1.65908 -1.56562 -1.66073 -1.65908 -1.75734 -1.66073 -1.75734 1.75734 1.66073 1.75734 1.66306 1.66073 1.56562 1.66306 1.5695 1.56562 1.47495 1.5695 1.4789 1.47495 1.39433 1.4789 1.39682 1.39433 1.33075 1.39682 1.33152 1.33075 1.28442 1.33152 1.28479 1.28442 1.23929 1.28479 1.23925 1.23929 1.17878 1.23925 1.17687 1.17878 1.1026 1.17687 1.09882 1.1026 1.01797 1.09882 1.01355 1.01797 0.9312 1.01355 0.927312 0.9312 0.845926 0.927312 0.843164 0.845926 0.763931 0.843164 0.762366 0.763931 0.685899 0.762366 0.685324 0.685899 0.611804 0.685324 0.611921 0.611804 0.541104 0.611921 0.541625 0.541104 0.472902 0.541625 0.473591 0.472902 0.406149 0.473591 0.406834 0.406149 0.339856 0.406834 0.340436 0.339856 0.27328 0.340436 0.27371 0.27328 0.205999 0.27371 0.20628 0.205999 0.137906 0.20628 0.138065 0.137906 0.0691404 0.138065 0.0692094 0.0691404 0 0.0692094 0 0 -0.0691404 0 -0.0692094 -0.0691404 -0.137906 -0.0692094 -0.138065 -0.137906 -0.205999 -0.138065 -0.20628 -0.205999 -0.27328 -0.20628 -0.27371 -0.27328 -0.339856 -0.27371 -0.340436 -0.339856 -0.406149 -0.340436 -0.406834 -0.406149 -0.472902 -0.406834 -0.473591 -0.472902 -0.541104 -0.473591 -0.541625 -0.541104 -0.611804 -0.541625 -0.611921 -0.611804 -0.685899 -0.611921 -0.685324 -0.685899 -0.763931 -0.685324 -0.762366 -0.763931 -0.845926 -0.762366 -0.843164 -0.845926 -0.9312 -0.843164 -0.927312 -0.9312 -1.01797 -0.927312 -1.01355 -1.01797 -1.1026 -1.01355 -1.09882 -1.1026 -1.17878 -1.09882 -1.17687 -1.17878 -1.23929 -1.17687 -1.23925 -1.23929 -1.28442 -1.23925 -1.28479 -1.28442 -1.33075 -1.28479 -1.33152 -1.33075 -1.39433 -1.33152 -1.39682 -1.39433 -1.47495 -1.39682 -1.4789 -1.47495 -1.56562 -1.4789 -1.5695 -1.56562 -1.66073 -1.5695 -1.66306 -1.66073 -1.75734 -1.66306 -1.75734 1.75734 1.66306 1.75734 1.66612 1.66306 1.5695 1.66612 1.57469 1.5695 1.4789 1.57469 1.48436 1.4789 1.39682 1.48436 1.40041 1.39682 1.33152 1.40041 1.33263 1.33152 1.28479 1.33263 1.28524 1.28479 1.23925 1.28524 1.23906 1.23925 1.17687 1.23906 1.17409 1.17687 1.09882 1.17409 1.09371 1.09882 1.01355 1.09371 1.00788 1.01355 0.927312 1.00788 0.92256 0.927312 0.843164 0.92256 0.839936 0.843164 0.762366 0.839936 0.760641 0.762366 0.685324 0.760641 0.684789 0.685324 0.611921 0.684789 0.612191 0.611921 0.541625 0.612191 0.542343 0.541625 0.473591 0.542343 0.474473 0.473591 0.406834 0.474473 0.40768 0.406834 0.340436 0.40768 0.34113 0.340436 0.27371 0.34113 0.274208 0.27371 0.20628 0.274208 0.206594 0.20628 0.138065 0.206594 0.138234 0.138065 0.0692094 0.138234 0.06928 0.0692094 0 0.06928 0 0 -0.0692094 0 -0.06928 -0.0692094 -0.138065 -0.06928 -0.138234 -0.138065 -0.20628 -0.138234 -0.206594 -0.20628 -0.27371 -0.206594 -0.274208 -0.27371 -0.340436 -0.274208 -0.34113 -0.340436 -0.406834 -0.34113 -0.40768 -0.406834 -0.473591 -0.40768 -0.474473 -0.473591 -0.541625 -0.474473 -0.542343 -0.541625 -0.611921 -0.542343 -0.612191 -0.611921 -0.685324 -0.612191 -0.684789 -0.685324 -0.762366 -0.684789 -0.760641 -0.762366 -0.843164 -0.760641 -0.839936 -0.843164 -0.927312 -0.839936 -0.92256 -0.927312 -1.01355 -0.92256 -1.00788 -1.01355 -1.09882 -1.00788 -1.09371 -1.09882 -1.17687 -1.09371 -1.17409 -1.17687 -1.23925 -1.17409 -1.23906 -1.23925 -1.28479 -1.23906 -1.28524 -1.28479 -1.33152 -1.28524 -1.33263 -1.33152 -1.39682 -1.33263 -1.40041 -1.39682 -1.4789 -1.40041 -1.48436 -1.4789 -1.5695 -1.48436 -1.57469 -1.5695 -1.66306 -1.57469 -1.66612 -1.66306 -1.75734 -1.66612 -1.75734 1.75734 1.66612 1.75734 1.66993 1.66612 1.57469 1.66993 1.58135 1.57469 1.48436 1.58135 1.4917 1.48436 1.40041 1.4917 1.4055 1.40041 1.33263 1.4055 1.33428 1.33263 1.28524 1.33428 1.28577 1.28524 1.23906 1.28577 1.23856 1.23906 1.17409 1.23856 1.17005 1.17409 1.09371 1.17005 1.08697 1.09371 1.00788 1.08697 1.00092 1.00788 0.92256 1.00092 0.917061 0.92256 0.839936 0.917061 0.83641 0.839936 0.760641 0.83641 0.758911 0.760641 0.684789 0.758911 0.684417 0.684789 0.612191 0.684417 0.612696 0.612191 0.542343 0.612696 0.543302 0.542343 0.474473 0.543302 0.475561 0.474473 0.40768 0.475561 0.408677 0.40768 0.34113 0.408677 0.341914 0.34113 0.274208 0.341914 0.274746 0.274208 0.206594 0.274746 0.206912 0.206594 0.138234 0.206912 0.138394 0.138234 0.06928 0.138394 0.069341 0.06928 0 0.069341 0 0 -0.06928 0 -0.069341 -0.06928 -0.138234 -0.069341 -0.138394 -0.138234 -0.206594 -0.138394 -0.206912 -0.206594 -0.274208 -0.206912 -0.274746 -0.274208 -0.34113 -0.274746 -0.341914 -0.34113 -0.40768 -0.341914 -0.408677 -0.40768 -0.474473 -0.408677 -0.475561 -0.474473 -0.542343 -0.475561 -0.543302 -0.542343 -0.612191 -0.543302 -0.612696 -0.612191 -0.684789 -0.612696 -0.684417 -0.684789 -0.760641 -0.684417 -0.758911 -0.760641 -0.839936 -0.758911 -0.83641 -0.839936 -0.92256 -0.83641 -0.917061 -0.92256 -1.00788 -0.917061 -1.00092 -1.00788 -1.09371 -1.00092 -1.08697 -1.09371 -1.17409 -1.08697 -1.17005 -1.17409 -1.23906 -1.17005 -1.23856 -1.23906 -1.28524 -1.23856 -1.28577 -1.28524 -1.33263 -1.28577 -1.33428 -1.33263 -1.40041 -1.33428 -1.4055 -1.40041 -1.48436 -1.4055 -1.4917 -1.48436 -1.57469 -1.4917 -1.58135 -1.57469 -1.66612 -1.58135 -1.66993 -1.66612 -1.75734 -1.66993 -1.75734 1.75734 1.66993 1.75734 1.67449 1.66993 1.58135 1.67449 1.58962 1.58135 1.4917 1.58962 1.50135 1.4917 1.4055 1.50135 1.41271 1.4055 1.33428 1.41271 1.33678 1.33428 1.28577 1.33678 1.28638 1.28577 1.23856 1.28638 1.23742 1.23856 1.17005 1.23742 1.1642 1.17005 1.08697 1.1642 1.07825 1.08697 1.00092 1.07825 0.992633 1.00092 0.917061 0.992633 0.910964 0.917061 0.83641 0.910964 0.832776 0.83641 0.758911 0.832776 0.757349 0.758911 0.684417 0.757349 0.684342 0.684417 0.612696 0.684342 0.613528 0.612696 0.543302 0.613528 0.544556 0.543302 0.475561 0.544556 0.476874 0.475561 0.408677 0.476874 0.409816 0.408677 0.341914 0.409816 0.342764 0.341914 0.274746 0.342764 0.275291 0.274746 0.206912 0.275291 0.207205 0.206912 0.138394 0.207205 0.138519 0.138394 0.069341 0.138519 0.0693798 0.069341 0 0.0693798 0 0 -0.069341 0 -0.0693798 -0.069341 -0.138394 -0.0693798 -0.138519 -0.138394 -0.206912 -0.138519 -0.207205 -0.206912 -0.274746 -0.207205 -0.275291 -0.274746 -0.341914 -0.275291 -0.342764 -0.341914 -0.408677 -0.342764 -0.409816 -0.408677 -0.475561 -0.409816 -0.476874 -0.475561 -0.543302 -0.476874 -0.544556 -0.543302 -0.612696 -0.544556 -0.613528 -0.612696 -0.684417 -0.613528 -0.684342 -0.684417 -0.758911 -0.684342 -0.757349 -0.758911 -0.83641 -0.757349 -0.832776 -0.83641 -0.917061 -0.832776 -0.910964 -0.917061 -1.00092 -0.910964 -0.992633 -1.00092 -1.08697 -0.992633 -1.07825 -1.08697 -1.17005 -1.07825 -1.1642 -1.17005 -1.23856 -1.1642 -1.23742 -1.23856 -1.28577 -1.23742 -1.28638 -1.28577 -1.33428 -1.28638 -1.33678 -1.33428 -1.4055 -1.33678 -1.41271 -1.4055 -1.4917 -1.41271 -1.50135 -1.4917 -1.58135 -1.50135 -1.58962 -1.58135 -1.66993 -1.58962 -1.67449 -1.66993 -1.75734 -1.67449 -1.75734 1.75734 1.67449 1.75734 1.67974 1.67449 1.58962 1.67974 1.59954 1.58962 1.50135 1.59954 1.51377 1.50135 1.41271 1.51377 1.42288 1.41271 1.33678 1.42288 1.34066 1.33678 1.28638 1.34066 1.28706 1.28638 1.23742 1.28706 1.23516 1.23742 1.1642 1.23516 1.15574 1.1642 1.07825 1.15574 1.06714 1.07825 0.992633 1.06714 0.983065 0.992633 0.910964 0.983065 0.904475 0.910964 0.832776 0.904475 0.829248 0.832776 0.757349 0.829248 0.75614 0.757349 0.684342 0.75614 0.68471 0.684342 0.613528 0.68471 0.61479 0.613528 0.544556 0.61479 0.546162 0.544556 0.476874 0.546162 0.478431 0.476874 0.409816 0.478431 0.411088 0.409816 0.342764 0.411088 0.343652 0.342764 0.275291 0.343652 0.275807 0.275291 0.207205 0.275807 0.207437 0.207205 0.138519 0.207437 0.138584 0.138519 0.0693798 0.138584 0.0693822 0.0693798 0 0.0693822 0 0 -0.0693798 0 -0.0693822 -0.0693798 -0.138519 -0.0693822 -0.138584 -0.138519 -0.207205 -0.138584 -0.207437 -0.207205 -0.275291 -0.207437 -0.275807 -0.275291 -0.342764 -0.275807 -0.343652 -0.342764 -0.409816 -0.343652 -0.411088 -0.409816 -0.476874 -0.411088 -0.478431 -0.476874 -0.544556 -0.478431 -0.546162 -0.544556 -0.613528 -0.546162 -0.61479 -0.613528 -0.684342 -0.61479 -0.68471 -0.684342 -0.757349 -0.68471 -0.75614 -0.757349 -0.832776 -0.75614 -0.829248 -0.832776 -0.910964 -0.829248 -0.904475 -0.910964 -0.992633 -0.904475 -0.983065 -0.992633 -1.07825 -0.983065 -1.06714 -1.07825 -1.1642 -1.06714 -1.15574 -1.1642 -1.23742 -1.15574 -1.23516 -1.23742 -1.28638 -1.23516 -1.28706 -1.28638 -1.33678 -1.28706 -1.34066 -1.33678 -1.41271 -1.34066 -1.42288 -1.41271 -1.50135 -1.42288 -1.51377 -1.50135 -1.58962 -1.51377 -1.59954 -1.58962 -1.67449 -1.59954 -1.67974 -1.67449 -1.75734 -1.67974 -1.75734 1.75734 1.67974 1.75734 1.68556 1.67974 1.59954 1.68556 1.611 1.59954 1.51377 1.611 1.52933 1.51377 1.42288 1.52933 1.43711 1.42288 1.34066 1.43711 1.34675 1.34066 1.28706 1.34675 1.2878 1.28706 1.23516 1.2878 1.23096 1.23516 1.15574 1.23096 1.1436 1.15574 1.06714 1.1436 1.05328 1.06714 0.983065 1.05328 0.972395 0.983065 0.904475 0.972395 0.897859 0.904475 0.829248 0.897859 0.82606 0.829248 0.75614 0.82606 0.75548 0.75614 0.68471 0.75548 0.685675 0.68471 0.61479 0.685675 0.616589 0.61479 0.546162 0.616589 0.548182 0.546162 0.478431 0.548182 0.480253 0.478431 0.411088 0.480253 0.412478 0.411088 0.343652 0.412478 0.344542 0.343652 0.275807 0.344542 0.276252 0.275807 0.207437 0.276252 0.207569 0.207437 0.138584 0.207569 0.13856 0.138584 0.0693822 0.13856 0.0693328 0.0693822 0 0.0693328 0 0 -0.0693822 0 -0.0693328 -0.0693822 -0.138584 -0.0693328 -0.13856 -0.138584 -0.207437 -0.13856 -0.207569 -0.207437 -0.275807 -0.207569 -0.276252 -0.275807 -0.343652 -0.276252 -0.344542 -0.343652 -0.411088 -0.344542 -0.412478 -0.411088 -0.478431 -0.412478 -0.480253 -0.478431 -0.546162 -0.480253 -0.548182 -0.546162 -0.61479 -0.548182 -0.616589 -0.61479 -0.68471 -0.616589 -0.685675 -0.68471 -0.75614 -0.685675 -0.75548 -0.75614 -0.829248 -0.75548 -0.82606 -0.829248 -0.904475 -0.82606 -0.897859 -0.904475 -0.983065 -0.897859 -0.972395 -0.983065 -1.06714 -0.972395 -1.05328 -1.06714 -1.15574 -1.05328 -1.1436 -1.15574 -1.23516 -1.1436 -1.23096 -1.23516 -1.28706 -1.23096 -1.2878 -1.28706 -1.34066 -1.2878 -1.34675 -1.34066 -1.42288 -1.34675 -1.43711 -1.42288 -1.51377 -1.43711 -1.52933 -1.51377 -1.59954 -1.52933 -1.611 -1.59954 -1.67974 -1.611 -1.68556 -1.67974 -1.75734 -1.68556 -1.75734 1.75734 1.68556 1.75734 1.6918 1.68556 1.611 1.6918 1.62367 1.611 1.52933 1.62367 1.54814 1.52933 1.43711 1.54814 1.45684 1.43711 1.34675 1.45684 1.35648 1.34675 1.2878 1.35648 1.2886 1.2878 1.23096 1.2886 1.22344 1.23096 1.1436 1.22344 1.12632 1.1436 1.05328 1.12632 1.03658 1.05328 0.972395 1.03658 0.961002 0.972395 0.897859 0.961002 0.891427 0.897859 0.82606 0.891427 0.823457 0.82606 0.75548 0.823457 0.755576 0.75548 0.685675 0.755576 0.6874 0.685675 0.616589 0.6874 0.61904 0.616589 0.548182 0.61904 0.55068 0.548182 0.480253 0.55068 0.482356 0.480253 0.412478 0.482356 0.413969 0.412478 0.344542 0.413969 0.345392 0.344542 0.276252 0.345392 0.276575 0.276252 0.207569 0.276575 0.207556 0.207569 0.13856 0.207556 0.138413 0.13856 0.0693328 0.138413 0.0692145 0.0693328 0 0.0692145 0 0 -0.0693328 0 -0.0692145 -0.0693328 -0.13856 -0.0692145 -0.138413 -0.13856 -0.207569 -0.138413 -0.207556 -0.207569 -0.276252 -0.207556 -0.276575 -0.276252 -0.344542 -0.276575 -0.345392 -0.344542 -0.412478 -0.345392 -0.413969 -0.412478 -0.480253 -0.413969 -0.482356 -0.480253 -0.548182 -0.482356 -0.55068 -0.548182 -0.616589 -0.55068 -0.61904 -0.616589 -0.685675 -0.61904 -0.6874 -0.685675 -0.75548 -0.6874 -0.755576 -0.75548 -0.82606 -0.755576 -0.823457 -0.82606 -0.897859 -0.823457 -0.891427 -0.897859 -0.972395 -0.891427 -0.961002 -0.972395 -1.05328 -0.961002 -1.03658 -1.05328 -1.1436 -1.03658 -1.12632 -1.1436 -1.23096 -1.12632 -1.22344 -1.23096 -1.2878 -1.22344 -1.2886 -1.2878 -1.34675 -1.2886 -1.35648 -1.34675 -1.43711 -1.35648 -1.45684 -1.43711 -1.52933 -1.45684 -1.54814 -1.52933 -1.611 -1.54814 -1.62367 -1.611 -1.68556 -1.62367 -1.6918 -1.68556 -1.75734 -1.6918 -1.75734 1.75734 1.6918 1.75734 1.69829 1.6918 1.62367 1.69829 1.63705 1.62367 1.54814 1.63705 1.56967 1.54814 1.45684 1.56967 1.48373 1.45684 1.35648 1.48373 1.37232 1.35648 1.2886 1.37232 1.28945 1.2886 1.22344 1.28945 1.21013 1.22344 1.12632 1.21013 1.10219 1.12632 1.03658 1.10219 1.01749 1.03658 0.961002 1.01749 0.949451 0.961002 0.891427 0.949451 0.885493 0.891427 0.823457 0.885493 0.821701 0.823457 0.755576 0.821701 0.756643 0.755576 0.6874 0.756643 0.690052 0.6874 0.61904 0.690052 0.622263 0.61904 0.55068 0.622263 0.553721 0.55068 0.482356 0.553721 0.484752 0.482356 0.413969 0.484752 0.415529 0.413969 0.345392 0.415529 0.346151 0.345392 0.276575 0.346151 0.276721 0.276575 0.207556 0.276721 0.207348 0.207556 0.138413 0.207348 0.138108 0.138413 0.0692145 0.138108 0.0690092 0.0692145 0 0.0690092 0 0 -0.0692145 0 -0.0690092 -0.0692145 -0.138413 -0.0690092 -0.138108 -0.138413 -0.207556 -0.138108 -0.207348 -0.207556 -0.276575 -0.207348 -0.276721 -0.276575 -0.345392 -0.276721 -0.346151 -0.345392 -0.413969 -0.346151 -0.415529 -0.413969 -0.482356 -0.415529 -0.484752 -0.482356 -0.55068 -0.484752 -0.553721 -0.55068 -0.61904 -0.553721 -0.622263 -0.61904 -0.6874 -0.622263 -0.690052 -0.6874 -0.755576 -0.690052 -0.756643 -0.755576 -0.823457 -0.756643 -0.821701 -0.823457 -0.891427 -0.821701 -0.885493 -0.891427 -0.961002 -0.885493 -0.949451 -0.961002 -1.03658 -0.949451 -1.01749 -1.03658 -1.12632 -1.01749 -1.10219 -1.12632 -1.22344 -1.10219 -1.21013 -1.22344 -1.2886 -1.21013 -1.28945 -1.2886 -1.35648 -1.28945 -1.37232 -1.35648 -1.45684 -1.37232 -1.48373 -1.45684 -1.54814 -1.48373 -1.56967 -1.54814 -1.62367 -1.56967 -1.63705 -1.62367 -1.6918 -1.63705 -1.69829 -1.6918 -1.75734 -1.69829 -1.75734 1.75734 1.69829 1.75734 1.70488 1.69829 1.63705 1.70488 1.65068 1.63705 1.56967 1.65068 1.59237 1.56967 1.48373 1.59237 1.51889 1.48373 1.37232 1.51889 1.39906 1.37232 1.28945 1.39906 1.29033 1.28945 1.21013 1.29033 1.18623 1.21013 1.10219 1.18623 1.06991 1.10219 1.01749 1.06991 0.997571 1.01749 0.949451 0.997571 0.938267 0.949451 0.885493 0.938267 0.880362 0.885493 0.821701 0.880362 0.821064 0.821701 0.756643 0.821064 0.758894 0.756643 0.690052 0.758894 0.693809 0.690052 0.622263 0.693809 0.626382 0.622263 0.553721 0.626382 0.55737 0.553721 0.484752 0.55737 0.487447 0.484752 0.415529 0.487447 0.417119 0.415529 0.346151 0.417119 0.346752 0.346151 0.276721 0.346752 0.276619 0.276721 0.207348 0.276619 0.206889 0.207348 0.138108 0.206889 0.137606 0.138108 0.0690092 0.137606 0.0686978 0.0690092 0 0.0686978 0 0 -0.0690092 0 -0.0686978 -0.0690092 -0.138108 -0.0686978 -0.137606 -0.138108 -0.207348 -0.137606 -0.206889 -0.207348 -0.276721 -0.206889 -0.276619 -0.276721 -0.346151 -0.276619 -0.346752 -0.346151 -0.415529 -0.346752 -0.417119 -0.415529 -0.484752 -0.417119 -0.487447 -0.484752 -0.553721 -0.487447 -0.55737 -0.553721 -0.622263 -0.55737 -0.626382 -0.622263 -0.690052 -0.626382 -0.693809 -0.690052 -0.756643 -0.693809 -0.758894 -0.756643 -0.821701 -0.758894 -0.821064 -0.821701 -0.885493 -0.821