# vtk DataFile Version 3.0
#This file was generated by the deal.II library on 2017/9/27 at 13:17:52
ASCII
DATASET UNSTRUCTURED_GRID

POINTS 2688 double
-3.6032 -4.36031e-23 0
-3.47625 0 0
-3.6032 0.0969628 0
-3.47608 0.0953147 0
-3.47625 0 0
-3.34609 0 0
-3.47608 0.0953147 0
-3.3458 0.0904224 0
-3.34609 0 0
-3.20897 0 0
-3.3458 0.0904224 0
-3.20869 0.0826574 0
-3.20897 0 0
-3.06075 0 0
-3.20869 0.0826574 0
-3.06055 0.0732595 0
-3.06075 0 0
-2.89847 0 0
-3.06055 0.0732595 0
-2.89836 0.064746 0
-2.89847 0 0
-2.72417 0 0
-2.89836 0.064746 0
-2.72411 0.0603076 0
-2.72417 0 0
-2.54717 0 0
-2.72411 0.0603076 0
-2.54715 0.0618412 0
-2.54717 0 0
-2.37838 0 0
-2.54715 0.0618412 0
-2.37847 0.0682077 0
-2.37838 0 0
-2.22236 0 0
-2.37847 0.0682077 0
-2.22261 0.0763527 0
-2.22236 0 0
-2.07733 0 0
-2.22261 0.0763527 0
-2.07769 0.0834692 0
-2.07733 0 0
-1.93908 0 0
-2.07769 0.0834692 0
-1.93947 0.0880667 0
-1.93908 0 0
-1.8035 0 0
-1.93947 0.0880667 0
-1.80383 0.0898365 0
-1.8035 0 0
-1.66732 0 0
-1.80383 0.0898365 0
-1.66754 0.0891225 0
-1.66732 0 0
-1.52814 0 0
-1.66754 0.0891225 0
-1.52824 0.0865482 0
-1.52814 0 0
-1.38425 0 0
-1.52824 0.0865482 0
-1.38425 0.0828752 0
-1.38425 0 0
-1.23481 0 0
-1.38425 0.0828752 0
-1.23475 0.0789642 0
-1.23481 0 0
-1.08003 0 0
-1.23475 0.0789642 0
-1.07995 0.0756994 0
-1.08003 0 0
-0.921432 0 0
-1.07995 0.0756994 0
-0.921339 0.0738029 0
-0.921432 0 0
-0.761514 0 0
-0.921339 0.0738029 0
-0.761431 0.0735972 0
-0.761514 0 0
-0.602933 0 0
-0.761431 0.0735972 0
-0.602871 0.074879 0
-0.602933 0 0
-0.447508 0 0
-0.602871 0.074879 0
-0.447472 0.0770233 0
-0.447508 0 0
-0.295754 0 0
-0.447472 0.0770233 0
-0.29574 0.0792491 0
-0.295754 0 0
-0.147038 0 0
-0.29574 0.0792491 0
-0.147035 0.0808759 0
-0.147038 0 0
0 0 0
-0.147035 0.0808759 0
0 0.0814672 0
0 0 0
0.147038 2.3331e-24 0
0 0.0814672 0
0.147035 0.0808759 0
0.147038 2.3331e-24 0
0.295754 -5.82151e-24 0
0.147035 0.0808759 0
0.29574 0.0792491 0
0.295754 -5.82151e-24 0
0.447508 -4.83427e-24 0
0.29574 0.0792491 0
0.447472 0.0770233 0
0.447508 -4.83427e-24 0
0.602933 -1.15152e-23 0
0.447472 0.0770233 0
0.602871 0.074879 0
0.602933 -1.15152e-23 0
0.761514 -2.46195e-23 0
0.602871 0.074879 0
0.761431 0.0735972 0
0.761514 -2.46195e-23 0
0.921432 8.17768e-25 0
0.761431 0.0735972 0
0.921339 0.0738029 0
0.921432 8.17768e-25 0
1.08003 1.02169e-23 0
0.921339 0.0738029 0
1.07995 0.0756994 0
1.08003 1.02169e-23 0
1.23481 -5.22038e-24 0
1.07995 0.0756994 0
1.23475 0.0789642 0
1.23481 -5.22038e-24 0
1.38425 -2.76247e-23 0
1.23475 0.0789642 0
1.38425 0.0828752 0
1.38425 -2.76247e-23 0
1.52814 -2.10433e-24 0
1.38425 0.0828752 0
1.52824 0.0865482 0
1.52814 -2.10433e-24 0
1.66732 -2.40529e-23 0
1.52824 0.0865482 0
1.66754 0.0891225 0
1.66732 -2.40529e-23 0
1.8035 -9.8477e-24 0
1.66754 0.0891225 0
1.80383 0.0898365 0
1.8035 -9.8477e-24 0
1.93908 3.11127e-23 0
1.80383 0.0898365 0
1.93947 0.0880667 0
1.93908 3.11127e-23 0
2.07733 3.1378e-23 0
1.93947 0.0880667 0
2.07769 0.0834692 0
2.07733 3.1378e-23 0
2.22236 2.3202e-24 0
2.07769 0.0834692 0
2.22261 0.0763527 0
2.22236 2.3202e-24 0
2.37838 -5.68135e-25 0
2.22261 0.0763527 0
2.37847 0.0682077 0
2.37838 -5.68135e-25 0
2.54717 6.37316e-24 0
2.37847 0.0682077 0
2.54715 0.0618412 0
2.54717 6.37316e-24 0
2.72417 9.26227e-24 0
2.54715 0.0618412 0
2.72411 0.0603076 0
2.72417 9.26227e-24 0
2.89847 1.40369e-23 0
2.72411 0.0603076 0
2.89836 0.064746 0
2.89847 1.40369e-23 0
3.06075 1.86385e-24 0
2.89836 0.064746 0
3.06055 0.0732595 0
3.06075 1.86385e-24 0
3.20897 -2.11717e-23 0
3.06055 0.0732595 0
3.20869 0.0826574 0
3.20897 -2.11717e-23 0
3.34609 -3.35796e-23 0
3.20869 0.0826574 0
3.3458 0.0904224 0
3.34609 -3.35796e-23 0
3.47625 2.12899e-23 0
3.3458 0.0904224 0
3.47608 0.0953147 0
3.47625 2.12899e-23 0
3.6032 -4.36031e-23 0
3.47608 0.0953147 0
3.6032 0.0969628 0
-3.6032 0.0969628 0
-3.47608 0.0953147 0
-3.6032 0.191941 0
-3.4755 0.188852 0
-3.47608 0.0953147 0
-3.3458 0.0904224 0
-3.4755 0.188852 0
-3.34488 0.179656 0
-3.3458 0.0904224 0
-3.20869 0.0826574 0
-3.34488 0.179656 0
-3.20777 0.164972 0
-3.20869 0.0826574 0
-3.06055 0.0732595 0
-3.20777 0.164972 0
-3.05992 0.147044 0
-3.06055 0.0732595 0
-2.89836 0.064746 0
-3.05992 0.147044 0
-2.89804 0.13064 0
-2.89836 0.064746 0
-2.72411 0.0603076 0
-2.89804 0.13064 0
-2.72393 0.122031 0
-2.72411 0.0603076 0
-2.54715 0.0618412 0
-2.72393 0.122031 0
-2.5471 0.125047 0
-2.54715 0.0618412 0
-2.37847 0.0682077 0
-2.5471 0.125047 0
-2.37877 0.137399 0
-2.37847 0.0682077 0
-2.22261 0.0763527 0
-2.37877 0.137399 0
-2.22338 0.153034 0
-2.22261 0.0763527 0
-2.07769 0.0834692 0
-2.22338 0.153034 0
-2.07881 0.166559 0
-2.07769 0.0834692 0
-1.93947 0.0880667 0
-2.07881 0.166559 0
-1.94063 0.17522 0
-1.93947 0.0880667 0
-1.80383 0.0898365 0
-1.94063 0.17522 0
-1.80477 0.178515 0
-1.80383 0.0898365 0
-1.66754 0.0891225 0
-1.80477 0.178515 0
-1.66813 0.177126 0
-1.66754 0.0891225 0
-1.52824 0.0865482 0
-1.66813 0.177126 0
-1.52846 0.17223 0
-1.52824 0.0865482 0
-1.38425 0.0828752 0
-1.52846 0.17223 0
-1.38421 0.165251 0
-1.38425 0.0828752 0
-1.23475 0.0789642 0
-1.38421 0.165251 0
-1.23455 0.157808 0
-1.23475 0.0789642 0
-1.07995 0.0756994 0
-1.23455 0.157808 0
-1.07968 0.151585 0
-1.07995 0.0756994 0
-0.921339 0.0738029 0
-1.07968 0.151585 0
-0.921068 0.147973 0
-0.921339 0.0738029 0
-0.761431 0.0735972 0
-0.921068 0.147973 0
-0.7612 0.147601 0
-0.761431 0.0735972 0
-0.602871 0.074879 0
-0.7612 0.147601 0
-0.602713 0.150076 0
-0.602871 0.074879 0
-0.447472 0.0770233 0
-0.602713 0.150076 0
-0.447395 0.15419 0
-0.447472 0.0770233 0
-0.29574 0.0792491 0
-0.447395 0.15419 0
-0.295723 0.158445 0
-0.29574 0.0792491 0
-0.147035 0.0808759 0
-0.295723 0.158445 0
-0.147041 0.161546 0
-0.147035 0.0808759 0
0 0.0814672 0
-0.147041 0.161546 0
0 0.162671 0
0 0.0814672 0
0.147035 0.0808759 0
0 0.162671 0
0.147041 0.161546 0
0.147035 0.0808759 0
0.29574 0.0792491 0
0.147041 0.161546 0
0.295723 0.158445 0
0.29574 0.0792491 0
0.447472 0.0770233 0
0.295723 0.158445 0
0.447395 0.15419 0
0.447472 0.0770233 0
0.602871 0.074879 0
0.447395 0.15419 0
0.602713 0.150076 0
0.602871 0.074879 0
0.761431 0.0735972 0
0.602713 0.150076 0
0.7612 0.147601 0
0.761431 0.0735972 0
0.921339 0.0738029 0
0.7612 0.147601 0
0.921068 0.147973 0
0.921339 0.0738029 0
1.07995 0.0756994 0
0.921068 0.147973 0
1.07968 0.151585 0
1.07995 0.0756994 0
1.23475 0.0789642 0
1.07968 0.151585 0
1.23455 0.157808 0
1.23475 0.0789642 0
1.38425 0.0828752 0
1.23455 0.157808 0
1.38421 0.165251 0
1.38425 0.0828752 0
1.52824 0.0865482 0
1.38421 0.165251 0
1.52846 0.17223 0
1.52824 0.0865482 0
1.66754 0.0891225 0
1.52846 0.17223 0
1.66813 0.177126 0
1.66754 0.0891225 0
1.80383 0.0898365 0
1.66813 0.177126 0
1.80477 0.178515 0
1.80383 0.0898365 0
1.93947 0.0880667 0
1.80477 0.178515 0
1.94063 0.17522 0
1.93947 0.0880667 0
2.07769 0.0834692 0
1.94063 0.17522 0
2.07881 0.166559 0
2.07769 0.0834692 0
2.22261 0.0763527 0
2.07881 0.166559 0
2.22338 0.153034 0
2.22261 0.0763527 0
2.37847 0.0682077 0
2.22338 0.153034 0
2.37877 0.137399 0
2.37847 0.0682077 0
2.54715 0.0618412 0
2.37877 0.137399 0
2.5471 0.125047 0
2.54715 0.0618412 0
2.72411 0.0603076 0
2.5471 0.125047 0
2.72393 0.122031 0
2.72411 0.0603076 0
2.89836 0.064746 0
2.72393 0.122031 0
2.89804 0.13064 0
2.89836 0.064746 0
3.06055 0.0732595 0
2.89804 0.13064 0
3.05992 0.147044 0
3.06055 0.0732595 0
3.20869 0.0826574 0
3.05992 0.147044 0
3.20777 0.164972 0
3.20869 0.0826574 0
3.3458 0.0904224 0
3.20777 0.164972 0
3.34488 0.179656 0
3.3458 0.0904224 0
3.47608 0.0953147 0
3.34488 0.179656 0
3.4755 0.188852 0
3.47608 0.0953147 0
3.6032 0.0969628 0
3.4755 0.188852 0
3.6032 0.191941 0
-3.6032 0.191941 0
-3.4755 0.188852 0
-3.6032 0.28516 0
-3.47449 0.280831 0
-3.4755 0.188852 0
-3.34488 0.179656 0
-3.47449 0.280831 0
-3.34327 0.267891 0
-3.34488 0.179656 0
-3.20777 0.164972 0
-3.34327 0.267891 0
-3.20618 0.247057 0
-3.20777 0.164972 0
-3.05992 0.147044 0
-3.20618 0.247057 0
-3.05886 0.221321 0
-3.05992 0.147044 0
-2.89804 0.13064 0
-3.05886 0.221321 0
-2.89754 0.197474 0
-2.89804 0.13064 0
-2.72393 0.122031 0
-2.89754 0.197474 0
-2.72367 0.184857 0
-2.72393 0.122031 0
-2.5471 0.125047 0
-2.72367 0.184857 0
-2.54702 0.189374 0
-2.5471 0.125047 0
-2.37877 0.137399 0
-2.54702 0.189374 0
-2.37927 0.207496 0
-2.37877 0.137399 0
-2.22338 0.153034 0
-2.37927 0.207496 0
-2.22468 0.230116 0
-2.22338 0.153034 0
-2.07881 0.166559 0
-2.22468 0.230116 0
-2.08066 0.249418 0
-2.07881 0.166559 0
-1.94063 0.17522 0
-2.08066 0.249418 0
-1.94251 0.261632 0
-1.94063 0.17522 0
-1.80477 0.178515 0
-1.94251 0.261632 0
-1.80625 0.266194 0
-1.80477 0.178515 0
-1.66813 0.177126 0
-1.80625 0.266194 0
-1.669 0.264138 0
-1.66813 0.177126 0
-1.52846 0.17223 0
-1.669 0.264138 0
-1.52875 0.257129 0
-1.52846 0.17223 0
-1.38421 0.165251 0
-1.52875 0.257129 0
-1.38408 0.247156 0
-1.38421 0.165251 0
-1.23455 0.157808 0
-1.38408 0.247156 0
-1.23419 0.236504 0
-1.23455 0.157808 0
-1.07968 0.151585 0
-1.23419 0.236504 0
-1.07924 0.227582 0
-1.07968 0.151585 0
-0.921068 0.147973 0
-1.07924 0.227582 0
-0.920637 0.222416 0
-0.921068 0.147973 0
-0.7612 0.147601 0
-0.920637 0.222416 0
-0.760844 0.221928 0
-0.7612 0.147601 0
-0.602713 0.150076 0
-0.760844 0.221928 0
-0.602482 0.225544 0
-0.602713 0.150076 0
-0.447395 0.15419 0
-0.602482 0.225544 0
-0.4473 0.231499 0
-0.447395 0.15419 0
-0.295723 0.158445 0
-0.4473 0.231499 0
-0.295724 0.237623 0
-0.295723 0.158445 0
-0.147041 0.161546 0
-0.295724 0.237623 0
-0.147068 0.24207 0
-0.147041 0.161546 0
0 0.162671 0
-0.147068 0.24207 0
0 0.243681 0
0 0.162671 0
0.147041 0.161546 0
0 0.243681 0
0.147068 0.24207 0
0.147041 0.161546 0
0.295723 0.158445 0
0.147068 0.24207 0
0.295724 0.237623 0
0.295723 0.158445 0
0.447395 0.15419 0
0.295724 0.237623 0
0.4473 0.231499 0
0.447395 0.15419 0
0.602713 0.150076 0
0.4473 0.231499 0
0.602482 0.225544 0
0.602713 0.150076 0
0.7612 0.147601 0
0.602482 0.225544 0
0.760844 0.221928 0
0.7612 0.147601 0
0.921068 0.147973 0
0.760844 0.221928 0
0.920637 0.222416 0
[...]
POINT_DATA 2688
SCALARS x1_displacement double 1
LOOKUP_TABLE default
2.02887 1.92115 2.02887 1.92132 1.92115 1.81664 1.92132 1.81693 1.81664 1.71909 1.81693 1.71937 1.71909 1.63264 1.71937 1.63284 1.63264 1.56025 1.63284 1.56036 1.56025 1.49988 1.56036 1.49994 1.49988 1.44221 1.49994 1.44223 1.44221 1.37634 1.44223 1.37625 1.37634 1.29769 1.37625 1.29744 1.29769 1.20805 1.29744 1.20769 1.20805 1.11163 1.20769 1.11124 1.11163 1.01254 1.11124 1.01221 1.01254 0.914046 1.01221 0.913827 0.914046 0.818564 0.913827 0.818464 0.818564 0.72778 0.818464 0.727776 0.72778 0.642552 0.727776 0.642609 0.642552 0.562656 0.642609 0.562743 0.562656 0.486588 0.562743 0.486681 0.486588 0.411836 0.486681 0.411919 0.411836 0.335746 0.411919 0.335808 0.335746 0.256501 0.335808 0.256537 0.256501 0.173585 0.256537 0.173599 0.173585 0.0876315 0.173599 0.0876347 0.0876315 0 0.0876347 0 0 -0.0876315 0 -0.0876347 -0.0876315 -0.173585 -0.0876347 -0.173599 -0.173585 -0.256501 -0.173599 -0.256537 -0.256501 -0.335746 -0.256537 -0.335808 -0.335746 -0.411836 -0.335808 -0.411919 -0.411836 -0.486588 -0.411919 -0.486681 -0.486588 -0.562656 -0.486681 -0.562743 -0.562656 -0.642552 -0.562743 -0.642609 -0.642552 -0.72778 -0.642609 -0.727776 -0.72778 -0.818564 -0.727776 -0.818464 -0.818564 -0.914046 -0.818464 -0.913827 -0.914046 -1.01254 -0.913827 -1.01221 -1.01254 -1.11163 -1.01221 -1.11124 -1.11163 -1.20805 -1.11124 -1.20769 -1.20805 -1.29769 -1.20769 -1.29744 -1.29769 -1.37634 -1.29744 -1.37625 -1.37634 -1.44221 -1.37625 -1.44223 -1.44221 -1.49988 -1.44223 -1.49994 -1.49988 -1.56025 -1.49994 -1.56036 -1.56025 -1.63264 -1.56036 -1.63284 -1.63264 -1.71909 -1.63284 -1.71937 -1.71909 -1.81664 -1.71937 -1.81693 -1.81664 -1.92115 -1.81693 -1.92132 -1.92115 -2.02887 -1.92132 -2.02887 2.02887 1.92132 2.02887 1.9219 1.92132 1.81693 1.9219 1.81785 1.81693 1.71937 1.81785 1.72029 1.71937 1.63284 1.72029 1.63347 1.63284 1.56036 1.63347 1.56068 1.56036 1.49994 1.56068 1.50012 1.49994 1.44223 1.50012 1.44228 1.44223 1.37625 1.44228 1.37595 1.37625 1.29744 1.37595 1.29667 1.29744 1.20769 1.29667 1.20657 1.20769 1.11124 1.20657 1.11008 1.11124 1.01221 1.11008 1.01127 1.01221 0.913827 1.01127 0.913245 0.913827 0.818464 0.913245 0.818238 0.818464 0.727776 0.818238 0.727818 0.727776 0.642609 0.727818 0.642809 0.642609 0.562743 0.642809 0.563009 0.562743 0.486681 0.563009 0.486952 0.486681 0.411919 0.486952 0.41215 0.411919 0.335808 0.41215 0.335966 0.335808 0.256537 0.335966 0.256614 0.256537 0.173599 0.256614 0.173616 0.173599 0.0876347 0.173616 0.0876287 0.0876347 0 0.0876287 0 0 -0.0876347 0 -0.0876287 -0.0876347 -0.173599 -0.0876287 -0.173616 -0.173599 -0.256537 -0.173616 -0.256614 -0.256537 -0.335808 -0.256614 -0.335966 -0.335808 -0.411919 -0.335966 -0.41215 -0.411919 -0.486681 -0.41215 -0.486952 -0.486681 -0.562743 -0.486952 -0.563009 -0.562743 -0.642609 -0.563009 -0.642809 -0.642609 -0.727776 -0.642809 -0.727818 -0.727776 -0.818464 -0.727818 -0.818238 -0.818464 -0.913827 -0.818238 -0.913245 -0.913827 -1.01221 -0.913245 -1.01127 -1.01221 -1.11124 -1.01127 -1.11008 -1.11124 -1.20769 -1.11008 -1.20657 -1.20769 -1.29744 -1.20657 -1.29667 -1.29744 -1.37625 -1.29667 -1.37595 -1.37625 -1.44223 -1.37595 -1.44228 -1.44223 -1.49994 -1.44228 -1.50012 -1.49994 -1.56036 -1.50012 -1.56068 -1.56036 -1.63284 -1.56068 -1.63347 -1.63284 -1.71937 -1.63347 -1.72029 -1.71937 -1.81693 -1.72029 -1.81785 -1.81693 -1.92132 -1.81785 -1.9219 -1.92132 -2.02887 -1.9219 -2.02887 2.02887 1.9219 2.02887 1.92291 1.9219 1.81785 1.92291 1.81946 1.81785 1.72029 1.81946 1.72188 1.72029 1.63347 1.72188 1.63453 1.63347 1.56068 1.63453 1.56118 1.56068 1.50012 1.56118 1.50038 1.50012 1.44228 1.50038 1.44236 1.44228 1.37595 1.44236 1.37545 1.37595 1.29667 1.37545 1.29537 1.29667 1.20657 1.29537 1.20472 1.20657 1.11008 1.20472 1.1082 1.11008 1.01127 1.1082 1.00979 1.01127 0.913245 1.00979 0.912374 0.913245 0.818238 0.912374 0.817949 0.818238 0.727818 0.817949 0.727947 0.727818 0.642809 0.727947 0.643167 0.642809 0.563009 0.643167 0.56345 0.563009 0.486952 0.56345 0.487383 0.486952 0.41215 0.487383 0.412506 0.41215 0.335966 0.412506 0.336197 0.335966 0.256614 0.336197 0.256709 0.256614 0.173616 0.256709 0.173615 0.173616 0.0876287 0.173615 0.0876019 0.0876287 0 0.0876019 0 0 -0.0876287 0 -0.0876019 -0.0876287 -0.173616 -0.0876019 -0.173615 -0.173616 -0.256614 -0.173615 -0.256709 -0.256614 -0.335966 -0.256709 -0.336197 -0.335966 -0.41215 -0.336197 -0.412506 -0.41215 -0.486952 -0.412506 -0.487383 -0.486952 -0.563009 -0.487383 -0.56345 -0.563009 -0.642809 -0.56345 -0.643167 -0.642809 -0.727818 -0.643167 -0.727947 -0.727818 -0.818238 -0.727947 -0.817949 -0.818238 -0.913245 -0.817949 -0.912374 -0.913245 -1.01127 -0.912374 -1.00979 -1.01127 -1.11008 -1.00979 -1.1082 -1.11008 -1.20657 -1.1082 -1.20472 -1.20657 -1.29667 -1.20472 -1.29537 -1.29667 -1.37595 -1.29537 -1.37545 -1.37595 -1.44228 -1.37545 -1.44236 -1.44228 -1.50012 -1.44236 -1.50038 -1.50012 -1.56068 -1.50038 -1.56118 -1.56068 -1.63347 -1.56118 -1.63453 -1.63347 -1.72029 -1.63453 -1.72188 -1.72029 -1.81785 -1.72188 -1.81946 -1.81785 -1.9219 -1.81946 -1.92291 -1.9219 -2.02887 -1.92291 -2.02887 2.02887 1.92291 2.02887 1.92439 1.92291 1.81946 1.92439 1.82186 1.81946 1.72188 1.82186 1.72426 1.72188 1.63453 1.72426 1.63613 1.63453 1.56118 1.63613 1.5619 1.56118 1.50038 1.5619 1.50074 1.50038 1.44236 1.50074 1.44245 1.44236 1.37545 1.44245 1.37468 1.37545 1.29537 1.37468 1.29344 1.29537 1.20472 1.29344 1.20207 1.20472 1.1082 1.20207 1.10559 1.1082 1.00979 1.10559 1.00784 1.00979 0.912374 1.00784 0.911306 0.912374 0.817949 0.911306 0.817688 0.817949 0.727947 0.817688 0.728237 0.727947 0.643167 0.728237 0.64373 0.643167 0.56345 0.64373 0.564085 0.56345 0.487383 0.564085 0.487969 0.487383 0.412506 0.487969 0.412961 0.412506 0.336197 0.412961 0.336461 0.336197 0.256709 0.336461 0.256775 0.256709 0.173615 0.256775 0.173556 0.173615 0.0876019 0.173556 0.0875307 0.0876019 0 0.0875307 0 0 -0.0876019 0 -0.0875307 -0.0876019 -0.173615 -0.0875307 -0.173556 -0.173615 -0.256709 -0.173556 -0.256775 -0.256709 -0.336197 -0.256775 -0.336461 -0.336197 -0.412506 -0.336461 -0.412961 -0.412506 -0.487383 -0.412961 -0.487969 -0.487383 -0.56345 -0.487969 -0.564085 -0.56345 -0.643167 -0.564085 -0.64373 -0.643167 -0.727947 -0.64373 -0.728237 -0.727947 -0.817949 -0.728237 -0.817688 -0.817949 -0.912374 -0.817688 -0.911306 -0.912374 -1.00979 -0.911306 -1.00784 -1.00979 -1.1082 -1.00784 -1.10559 -1.1082 -1.20472 -1.10559 -1.20207 -1.20472 -1.29537 -1.20207 -1.29344 -1.29537 -1.37545 -1.29344 -1.37468 -1.37545 -1.44236 -1.37468 -1.44245 -1.44236 -1.50038 -1.44245 -1.50074 -1.50038 -1.56118 -1.50074 -1.5619 -1.56118 -1.63453 -1.5619 -1.63613 -1.63453 -1.72188 -1.63613 -1.72426 -1.72188 -1.81946 -1.72426 -1.82186 -1.81946 -1.92291 -1.82186 -1.92439 -1.92291 -2.02887 -1.92439 -2.02887 2.02887 1.92439 2.02887 1.92644 1.92439 1.82186 1.92644 1.82521 1.82186 1.72426 1.82521 1.72767 1.72426 1.63613 1.72767 1.63845 1.63613 1.5619 1.63845 1.56293 1.5619 1.50074 1.56293 1.5012 1.50074 1.44245 1.5012 1.4425 1.44245 1.37468 1.4425 1.37349 1.37468 1.29344 1.37349 1.29071 1.29344 1.20207 1.29071 1.1985 1.20207 1.10559 1.1985 1.10223 1.10559 1.00784 1.10223 1.00546 1.00784 0.911306 1.00546 0.910146 0.911306 0.817688 0.910146 0.817576 0.817688 0.728237 0.817576 0.728796 0.728237 0.64373 0.728796 0.644578 0.64373 0.564085 0.644578 0.564955 0.564085 0.487969 0.564955 0.488713 0.487969 0.412961 0.488713 0.413485 0.412961 0.336461 0.413485 0.336701 0.336461 0.256775 0.336701 0.256746 0.256775 0.173556 0.256746 0.17338 0.173556 0.0875307 0.17338 0.0873813 0.0875307 0 0.0873813 0 0 -0.0875307 0 -0.0873813 -0.0875307 -0.173556 -0.0873813 -0.17338 -0.173556 -0.256775 -0.17338 -0.256746 -0.256775 -0.336461 -0.256746 -0.336701 -0.336461 -0.412961 -0.336701 -0.413485 -0.412961 -0.487969 -0.413485 -0.488713 -0.487969 -0.564085 -0.488713 -0.564955 -0.564085 -0.64373 -0.564955 -0.644578 -0.64373 -0.728237 -0.644578 -0.728796 -0.728237 -0.817688 -0.728796 -0.817576 -0.817688 -0.911306 -0.817576 -0.910146 -0.911306 -1.00784 -0.910146 -1.00546 -1.00784 -1.10559 -1.00546 -1.10223 -1.10559 -1.20207 -1.10223 -1.1985 -1.20207 -1.29344 -1.1985 -1.29071 -1.29344 -1.37468 -1.29071 -1.37349 -1.37468 -1.44245 -1.37349 -1.4425 -1.44245 -1.50074 -1.4425 -1.5012 -1.50074 -1.5619 -1.5012 -1.56293 -1.5619 -1.63613 -1.56293 -1.63845 -1.63613 -1.72426 -1.63845 -1.72767 -1.72426 -1.82186 -1.72767 -1.82521 -1.82186 -1.92439 -1.82521 -1.92644 -1.92439 -2.02887 -1.92644 -2.02887 2.02887 1.92644 2.02887 1.92914 1.92644 1.82521 1.92914 1.82972 1.82521 1.72767 1.82972 1.73238 1.72767 1.63845 1.73238 1.64176 1.63845 1.56293 1.64176 1.56441 1.56293 1.5012 1.56441 1.50177 1.5012 1.4425 1.50177 1.44239 1.4425 1.37349 1.44239 1.37165 1.37349 1.29071 1.37165 1.28691 1.29071 1.1985 1.28691 1.19383 1.1985 1.10223 1.19383 1.0981 1.10223 1.00546 1.0981 1.00273 1.00546 0.910146 1.00273 0.90902 0.910146 0.817576 0.90902 0.817757 0.817576 0.728796 0.817757 0.729762 0.728796 0.644578 0.729762 0.645818 0.644578 0.564955 0.645818 0.566119 0.564955 0.488713 0.566119 0.489622 0.488713 0.413485 0.489622 0.414037 0.413485 0.336701 0.414037 0.336842 0.336701 0.256746 0.336842 0.256534 0.256746 0.17338 0.256534 0.173011 0.17338 0.0873813 0.173011 0.0871094 0.0873813 0 0.0871094 0 0 -0.0873813 0 -0.0871094 -0.0873813 -0.17338 -0.0871094 -0.173011 -0.17338 -0.256746 -0.173011 -0.256534 -0.256746 -0.336701 -0.256534 -0.336842 -0.336701 -0.413485 -0.336842 -0.414037 -0.413485 -0.488713 -0.414037 -0.489622 -0.488713 -0.564955 -0.489622 -0.566119 -0.564955 -0.644578 -0.566119 -0.645818 -0.644578 -0.728796 -0.645818 -0.729762 -0.728796 -0.817576 -0.729762 -0.817757 -0.817576 -0.910146 -0.817757 -0.90902 -0.910146 -1.00546 -0.90902 -1.00273 -1.00546 -1.10223 -1.00273 -1.0981 -1.10223 -1.1985 -1.0981 -1.19383 -1.1985 -1.29071 -1.19383 -1.28691 -1.29071 -1.37349 -1.28691 -1.37165 -1.37349 -1.4425 -1.37165 -1.44239 -1.4425 -1.5012 -1.44239 -1.50177 -1.5012 -1.56293 -1.50177 -1.56441 -1.56293 -1.63845 -1.56441 -1.64176 -1.63845 -1.72767 -1.64176 -1.73238 -1.72767 -1.82521 -1.73238 -1.82972 -1.82521 -1.92644 -1.82972 -1.92914 -1.92644 -2.02887 -1.92914 -2.02887 2.02887 1.92914 2.02887 1.93259 1.92914 1.82972 1.93259 1.83562 1.82972 1.73238 1.83562 1.73878 1.73238 1.64176 1.73878 1.64646 1.64176 1.56441 1.64646 1.56656 1.56441 1.50177 1.56656 1.50247 1.50177 1.44239 1.50247 1.44199 1.44239 1.37165 1.44199 1.36885 1.37165 1.28691 1.36885 1.2817 1.28691 1.19383 1.2817 1.18787 1.19383 1.0981 1.18787 1.09315 1.0981 1.00273 1.09315 0.999734 1.00273 0.90902 0.999734 0.908073 0.90902 0.817757 0.908073 0.818401 0.817757 0.729762 0.818401 0.7313 0.729762 0.645818 0.7313 0.647583 0.645818 0.566119 0.647583 0.567658 0.566119 0.489622 0.567658 0.49071 0.489622 0.414037 0.49071 0.414568 0.414037 0.336842 0.414568 0.33679 0.336842 0.256534 0.33679 0.256025 0.256534 0.173011 0.256025 0.172352 0.173011 0.0871094 0.172352 0.0866611 0.0871094 0 0.0866611 0 0 -0.0871094 0 -0.0866611 -0.0871094 -0.173011 -0.0866611 -0.172352 -0.173011 -0.256534 -0.172352 -0.256025 -0.256534 -0.336842 -0.256025 -0.33679 -0.336842 -0.414037 -0.33679 -0.414568 -0.414037 -0.489622 -0.414568 -0.49071 -0.489622 -0.566119 -0.49071 -0.567658 -0.566119 -0.645818 -0.567658 -0.647583 -0.645818 -0.729762 -0.647583 -0.7313 -0.729762 -0.817757 -0.7313 -0.818401 -0.817757 -0.90902 -0.818401 -0.908073 -0.90902 -1.00273 -0.908073 -0.999734 -1.00273 -1.0981 -0.999734 -1.09315 -1.0981 -1.19383 -1.09315 -1.18787 -1.19383 -1.28691 -1.18787 -1.2817 -1.28691 -1.37165 -1.2817 -1.36885 -1.37165 -1.44239 -1.36885 -1.44199 -1.44239 -1.50177 -1.44199 -1.50247 -1.50177 -1.56441 -1.50247 -1.56656 -1.56441 -1.64176 -1.56656 -1.64646 -1.64176 -1.73238 -1.64646 -1.73878 -1.73238 -1.82972 -1.73878 -1.83562 -1.82972 -1.92914 -1.83562 -1.93259 -1.92914 -2.02887 -1.93259 -2.02887 2.02887 1.93259 2.02887 1.93684 1.93259 1.83562 1.93684 1.84312 1.83562 1.73878 1.84312 1.7473 1.73878 1.64646 1.7473 1.65306 1.64646 1.56656 1.65306 1.56969 1.56656 1.50247 1.56969 1.50335 1.50247 1.44199 1.50335 1.44109 1.44199 1.36885 1.44109 1.36462 1.36885 1.2817 1.36462 1.27463 1.2817 1.18787 1.27463 1.18038 1.18787 1.09315 1.18038 1.08737 1.09315 0.999734 1.08737 0.996581 0.999734 0.908073 0.996581 0.90747 0.908073 0.818401 0.90747 0.819701 0.818401 0.7313 0.819701 0.733608 0.7313 0.647583 0.733608 0.650039 0.647583 0.567658 0.650039 0.569671 0.567658 0.49071 0.569671 0.491994 0.49071 0.414568 0.491994 0.415017 0.414568 0.33679 0.415017 0.336423 0.33679 0.256025 0.336423 0.255082 0.256025 0.172352 0.255082 0.171288 0.172352 0.0866611 0.171288 0.0859729 0.0866611 0 0.0859729 0 0 -0.0866611 0 -0.0859729 -0.0866611 -0.172352 -0.0859729 -0.171288 -0.172352 -0.256025 -0.171288 -0.255082 -0.256025 -0.33679 -0.255082 -0.336423 -0.33679 -0.414568 -0.336423 -0.415017 -0.414568 -0.49071 -0.415017 -0.491994 -0.49071 -0.567658 -0.491994 -0.569671 -0.567658 -0.647583 -0.569671 -0.650039 -0.647583 -0.7313 -0.650039 -0.733608 -0.7313 -0.818401 -0.733608 -0.819701 -0.818401 -0.908073 -0.819701 -0.90747 -0.908073 -0.999734 -0.90747 -0.996581 -0.999734 -1.09315 -0.996581 -1.08737 -1.09315 -1.18787 -1.08737 -1.18038 -1.18787 -1.2817 -1.18038 -1.27463 -1.2817 -1.36885 -1.27463 -1.36462 -1.36885 -1.44199 -1.36462 -1.44109 -1.44199 -1.50247 -1.44109 -1.50335 -1.50247 -1.56656 -1.50335 -1.56969 -1.56656 -1.64646 -1.56969 -1.65306 -1.64646 -1.73878 -1.65306 -1.7473 -1.73878 -1.83562 -1.7473 -1.84312 -1.83562 -1.93259 -1.84312 -1.93684 -1.93259 -2.02887 -1.93684 -2.02887 2.02887 1.93684 2.02887 1.94192 1.93684 1.84312 1.94192 1.85239 1.84312 1.7473 1.85239 1.75843 1.7473 1.65306 1.75843 1.66226 1.65306 1.56969 1.66226 1.57426 1.56969 1.50335 1.57426 1.50444 1.50335 1.44109 1.50444 1.43937 1.44109 1.36462 1.43937 1.35834 1.36462 1.27463 1.35834 1.26517 1.27463 1.18038 1.26517 1.17118 1.18038 1.08737 1.17118 1.08082 1.08737 0.996581 1.08082 0.993412 0.996581 0.90747 0.993412 0.907393 0.90747 0.819701 0.907393 0.82187 0.819701 0.733608 0.82187 0.736911 0.733608 0.650039 0.736911 0.653388 0.650039 0.569671 0.653388 0.572285 0.569671 0.491994 0.572285 0.493495 0.491994 0.415017 0.493495 0.415297 0.415017 0.336423 0.415297 0.335586 0.336423 0.255082 0.335586 0.253531 0.255082 0.171288 0.253531 0.169684 0.171288 0.0859729 0.169684 0.0849731 0.0859729 0 0.0849731 0 0 -0.0859729 0 -0.0849731 -0.0859729 -0.171288 -0.0849731 -0.169684 -0.171288 -0.255082 -0.169684 -0.253531 -0.255082 -0.336423 -0.253531 -0.335586 -0.336423 -0.415017 -0.335586 -0.415297 -0.415017 -0.491994 -0.415297 -0.493495 -0.491994 -0.569671 -0.493495 -0.572285 -0.569671 -0.650039 -0.572285 -0.653388 -0.650039 -0.733608 -0.653388 -0.736911 -0.733608 -0.819701 -0.736911 -0.82187 -0.819701 -0.90747 -0.82187 -0.907393 -0.90747 -0.996581 -0.907393 -0.993412 -0.996581 -1.08737 -0.993412 -1.08082 -1.08737 -1.18038 -1.08082 -1.17118 -1.18038 -1.27463 -1.17118 -1.26517 -1.27463 -1.36462 -1.26517 -1.35834 -1.36462 -1.44109 -1.35834 -1.43937 -1.44109 -1.50335 -1.43937 -1.50444 -1.50335 -1.56969 -1.50444 -1.57426 -1.56969 -1.65306 -1.57426 -1.66226 -1.65306 -1.7473 -1.66226 -1.75843 -1.7473 -1.84312 -1.75843 -1.85239 -1.84312 -1.93684 -1.85239 -1.94192 -1.93684 -2.02887 -1.94192 -2.02887 2.02887 1.94192 2.02887 1.9478 1.94192 1.85239 1.9478 1.8635 1.85239 1.75843 1.8635 1.77263 1.75843 1.66226 1.77263 1.67497 1.66226 1.57426 1.67497 1.58098 1.57426 1.50444 1.58098 1.50584 1.50444 1.43937 1.50584 1.43631 1.43937 1.35834 1.43631 1.34908 1.35834 1.26517 1.34908 1.25269 1.26517 1.17118 1.25269 1.16013 1.17118 1.08082 1.16013 1.07359 1.08082 0.993412 1.07359 0.990394 0.993412 0.907393 0.990394 0.908036 0.907393 0.82187 0.908036 0.825135 0.82187 0.736911 0.825135 0.741466 0.736911 0.653388 0.741466 0.657875 0.653388 0.572285 0.657875 0.575664 0.572285 0.493495 0.575664 0.49524 0.493495 0.415297 0.49524 0.415296 0.415297 0.335586 0.415296 0.334074 0.335586 0.253531 0.334074 0.251161 0.253531 0.169684 0.251161 0.167383 0.169684 0.0849731 0.167383 0.0835835 0.0849731 0 0.0835835 0 0 -0.0849731 0 -0.0835835 -0.0849731 -0.169684 -0.0835835 -0.167383 -0.169684 -0.253531 -0.167383 -0.251161 -0.253531 -0.335586 -0.251161 -0.334074 -0.335586 -0.415297 -0.334074 -0.415296 -0.415297 -0.493495 -0.415296 -0.49524 -0.493495 -0.572285 -0.49524 -0.575664 -0.572285 -0.653388 -0.575664 -0.657875 -0.653388 -0.736911 -0.657875 -0.741466 -0.736911 -0.82187 -0.741466 -0.825135 -0.82187 -0.907393 -0.825135 -0.908036 -0.907393 -0.993412 -0.908036 -0.990394 -0.993412 -1.08082 -0.990394 -1.07359 -1.08082 -1.17118 -1.07359 -1.16013 -1.17118 -1.26517 -1.16013 -1.25269 -1.26517 -1.35834 -1.25269 -1.34908 -1.35834 -1.43937 -1.34908 -1.43631 -1.43937 -1.50444 -1.43631 -1.50584 -1.50444 -1.57426 -1.50584 -1.58098 -1.57426 -1.66226 -1.58098 -1.67497 -1.66226 -1.75843 -1.67497 -1.77263 -1.75843 -1.85239 -1.77263 -1.8635 -1.85239 -1.94192 -1.8635 -1.9478 -1.94192 -2.02887 -1.9478 -2.02887 2.02887 1.9478 2.02887 1.95437 1.9478 1.8635 1.95437 1.87634 1.8635 1.77263 1.87634 1.79027 1.77263 1.67497 1.79027 1.69239 1.67497 1.58098 1.69239 1.59101 1.58098 1.50584 1.59101 1.5077 1.50584 1.43631 1.5077 1.43105 1.43631 1.34908 1.43105 1.33553 1.34908 1.25269 1.33553 1.23659 1.25269 1.16013 1.23659 1.14729 1.16013 1.07359 1.14729 1.06588 1.07359 0.990394 1.06588 0.987717 0.990394 0.908036 0.987717 0.909595 0.908036 0.825135 0.909595 0.829728 0.825135 0.741466 0.829728 0.747564 0.741466 0.657875 0.747564 0.663805 0.657875 0.575664 0.663805 0.580023 0.575664 0.49524 0.580023 0.497261 0.49524 0.415296 0.497261 0.414852 0.415296 0.334074 0.414852 0.331619 0.334074 0.251161 0.331619 0.247715 0.251161 0.167383 0.247715 0.164211 0.167383 0.0835835 0.164211 0.0817238 0.0835835 0 0.0817238 0 0 -0.0835835 0 -0.0817238 -0.0835835 -0.167383 -0.0817238 -0.164211 -0.167383 -0.251161 -0.164211 -0.247715 -0.251161 -0.334074 -0.247715 -0.331619 -0.334074 -0.415296 -0.331619 -0.414852 -0.415296 -0.49524 -0.414852 -0.497261 -0.49524 -0.575664 -0.497261 -0.580023 -0.575664 -0.657875 -0.580023 -0.663805 -0.657875 -0.741466 -0.663805 -0.747564 -0.741466 -0.825135 -0.747564 -0.829728 -0.825135 -0.908036 -0.829728 -0.909595 -0.908036 -0.990394 -0.909595 -0.987717 -0.990394 -1.07359 -0.987717 -1.06588 -1.07359 -1.16013 -1.06588 -1.14729 -1.16013 -1.25269 -1.14729 -1.23659 -1.25269 -1.34908 -1.23659 -1.33553 -1.34908 -1.43631 -1.33553 -1.43105 -1.43631 -1.50584 -1.43105 -1.5077 -1.50584 -1.58098 -1.5077 -1.59101 -1.58098 -1.67497 -1.59101 -1.69239 -1.67497 -1.77263 -1.69239 -1.79027 -1.77263 -1.8635 -1.79027 -1.87634 -1.8635 -1.9478 -1.87634 -1.95437 -1.9478 -2.02887 -1.95437 -2.02887 2.02887 1.95437 2.02887 1.9615 1.95437 1.87634 1.9615 1.89062 1.87634 1.79027 1.89062 1.8113 1.79027 1.69239 1.8113 1.71599 1.69239 1.59101 1.71599 1.60628 1.59101 1.5077 1.60628 1.51032 1.5077 1.43105 1.51032 1.42202 1.43105 1.33553 1.42202 1.31581 1.33553 1.23659 1.31581 1.21651 1.23659 1.14729 1.21651 1.13294 1.14729 1.06588 1.13294 1.05795 1.06588 0.987717 1.05795 0.985584 0.987717 0.909595 0.985584 0.912257 0.909595 0.829728 0.912257 0.835875 0.829728 0.747564 0.835875 0.75552 0.747564 0.663805 0.75552 0.67156 0.663805 0.580023 0.67156 0.585661 0.580023 0.497261 0.585661 0.499602 0.497261 0.414852 0.499602 0.413734 0.414852 0.331619 0.413734 0.327859 0.331619 0.247715 0.327859 0.242883 0.247715 0.164211 0.242883 0.159987 0.164211 0.0817238 0.159987 0.079318 0.0817238 0 0.079318 0 0 -0.0817238 0 -0.079318 -0.0817238 -0.164211 -0.079318 -0.159987 -0.164211 -0.247715 -0.159987 -0.242883 -0.247715 -0.331619 -0.242883 -0.327859 -0.331619 -0.414852 -0.327859 -0.413734 -0.414852 -0.497261 -0.413734 -0.499602 -0.497261 -0.580023 -0.499602 -0.585661 -0.580023 -0.663805 -0.585661 -0.67156 -0.663805 -0.747564 -0.67156 -0.75552 -0.747564 -0.829728 -0.75552 -0.835875 -0.829728 -0.909595 -0.835875 -0.912257 -0.909595 -0.987717 -0.912257 -0.985584 -0.987717 -1.06588 -0.985584 -1.05795 -1.06588 -1.14729 -1.05795 -1.13294 -1.14729 -1.23659 -1.13294 -1.21