# vtk DataFile Version 3.0
#This file was generated by the deal.II library on 2017/9/27 at 13:18:27
ASCII
DATASET UNSTRUCTURED_GRID

POINTS 2688 double
-4.11728 -7.55018e-23 0
-3.96903 0 0
-4.11728 0.0934921 0
-3.96867 0.0923728 0
-3.96903 0 0
-3.81904 0 0
-3.96867 0.0923728 0
-3.81844 0.0887341 0
-3.81904 0 0
-3.6642 0 0
-3.81844 0.0887341 0
-3.6636 0.0820201 0
-3.6642 0 0
-3.49936 0 0
-3.6636 0.0820201 0
-3.49898 0.0724252 0
-3.49936 0 0
-3.31896 0 0
-3.49898 0.0724252 0
-3.31881 0.0625378 0
-3.31896 0 0
-3.12382 0 0
-3.31881 0.0625378 0
-3.12376 0.0576382 0
-3.12382 0 0
-2.92782 0 0
-3.12376 0.0576382 0
-2.92786 0.0614546 0
-2.92782 0 0
-2.74508 0 0
-2.92786 0.0614546 0
-2.74539 0.0701468 0
-2.74508 0 0
-2.57645 0 0
-2.74539 0.0701468 0
-2.57705 0.0783287 0
-2.57645 0 0
-2.41588 0 0
-2.57705 0.0783287 0
-2.41659 0.083399 0
-2.41588 0 0
-2.25741 0 0
-2.41659 0.083399 0
-2.25804 0.0853167 0
-2.25741 0 0
-2.0972 0 0
-2.25804 0.0853167 0
-2.09766 0.0850357 0
-2.0972 0 0
-1.9334 0 0
-2.09766 0.0850357 0
-1.93367 0.0835523 0
-1.9334 0 0
-1.7655 0 0
-1.93367 0.0835523 0
-1.76562 0.081616 0
-1.7655 0 0
-1.59384 0 0
-1.76562 0.081616 0
-1.59385 0.0797182 0
-1.59384 0 0
-1.4192 0 0
-1.59385 0.0797182 0
-1.41914 0.0781415 0
-1.4192 0 0
-1.24252 0 0
-1.41914 0.0781415 0
-1.24243 0.0770074 0
-1.24252 0 0
-1.06471 0 0
-1.24243 0.0770074 0
-1.06462 0.0763192 0
-1.06471 0 0
-0.886512 0 0
-1.06462 0.0763192 0
-0.886433 0.0760043 0
-0.886512 0 0
-0.708435 0 0
-0.886433 0.0760043 0
-0.708374 0.0759531 0
-0.708435 0 0
-0.530744 0 0
-0.708374 0.0759531 0
-0.530703 0.07605 0
-0.530744 0 0
-0.353508 0 0
-0.530703 0.07605 0
-0.353483 0.0761945 0
-0.353508 0 0
-0.176649 0 0
-0.353483 0.0761945 0
-0.176638 0.0763114 0
-0.176649 0 0
0 0 0
-0.176638 0.0763114 0
0 0.0763554 0
0 0 0
0.176649 5.82113e-24 0
0 0.0763554 0
0.176638 0.0763114 0
0.176649 5.82113e-24 0
0.353508 1.44666e-23 0
0.176638 0.0763114 0
0.353483 0.0761945 0
0.353508 1.44666e-23 0
0.530744 -3.39951e-23 0
0.353483 0.0761945 0
0.530703 0.07605 0
0.530744 -3.39951e-23 0
0.708435 -1.79706e-23 0
0.530703 0.07605 0
0.708374 0.0759531 0
0.708435 -1.79706e-23 0
0.886512 -4.60909e-23 0
0.708374 0.0759531 0
0.886433 0.0760043 0
0.886512 -4.60909e-23 0
1.06471 1.88143e-23 0
0.886433 0.0760043 0
1.06462 0.0763192 0
1.06471 1.88143e-23 0
1.24252 2.43676e-23 0
1.06462 0.0763192 0
1.24243 0.0770074 0
1.24252 2.43676e-23 0
1.4192 1.04375e-23 0
1.24243 0.0770074 0
1.41914 0.0781415 0
1.4192 1.04375e-23 0
1.59384 -5.20486e-23 0
1.41914 0.0781415 0
1.59385 0.0797182 0
1.59384 -5.20486e-23 0
1.7655 -2.47033e-23 0
1.59385 0.0797182 0
1.76562 0.081616 0
1.7655 -2.47033e-23 0
1.9334 -5.21177e-23 0
1.76562 0.081616 0
1.93367 0.0835523 0
1.9334 -5.21177e-23 0
2.0972 -1.46195e-23 0
1.93367 0.0835523 0
2.09766 0.0850357 0
2.0972 -1.46195e-23 0
2.25741 7.19832e-23 0
2.09766 0.0850357 0
2.25804 0.0853167 0
2.25741 7.19832e-23 0
2.41588 4.47251e-23 0
2.25804 0.0853167 0
2.41659 0.083399 0
2.41588 4.47251e-23 0
2.57645 4.01055e-23 0
2.41659 0.083399 0
2.57705 0.0783287 0
2.57645 4.01055e-23 0
2.74508 1.87544e-23 0
2.57705 0.0783287 0
2.74539 0.0701468 0
2.74508 1.87544e-23 0
2.92782 3.56877e-23 0
2.74539 0.0701468 0
2.92786 0.0614546 0
2.92782 3.56877e-23 0
3.12382 1.58017e-23 0
2.92786 0.0614546 0
3.12376 0.0576382 0
3.12382 1.58017e-23 0
3.31896 2.39783e-23 0
3.12376 0.0576382 0
3.31881 0.0625378 0
3.31896 2.39783e-23 0
3.49936 -9.55318e-24 0
3.31881 0.0625378 0
3.49898 0.0724252 0
3.49936 -9.55318e-24 0
3.6642 -3.20824e-23 0
3.49898 0.0724252 0
3.6636 0.0820201 0
3.6642 -3.20824e-23 0
3.81904 -5.51993e-23 0
3.6636 0.0820201 0
3.81844 0.0887341 0
3.81904 -5.51993e-23 0
3.96903 4.46338e-23 0
3.81844 0.0887341 0
3.96867 0.0923728 0
3.96903 4.46338e-23 0
4.11728 -7.55018e-23 0
3.96867 0.0923728 0
4.11728 0.0934921 0
-4.11728 0.0934921 0
-3.96867 0.0923728 0
-4.11728 0.185155 0
-3.9676 0.183083 0
-3.96867 0.0923728 0
-3.81844 0.0887341 0
-3.9676 0.183083 0
-3.81668 0.176317 0
-3.81844 0.0887341 0
-3.6636 0.0820201 0
-3.81668 0.176317 0
-3.66181 0.163717 0
-3.6636 0.0820201 0
-3.49898 0.0724252 0
-3.66181 0.163717 0
-3.49782 0.145451 0
-3.49898 0.0724252 0
-3.31881 0.0625378 0
-3.49782 0.145451 0
-3.3184 0.126302 0
-3.31881 0.0625378 0
-3.12376 0.0576382 0
-3.3184 0.126302 0
-3.12359 0.116677 0
-3.12376 0.0576382 0
-2.92786 0.0614546 0
-3.12359 0.116677 0
-2.92795 0.124245 0
-2.92786 0.0614546 0
-2.74539 0.0701468 0
-2.92795 0.124245 0
-2.74631 0.141147 0
-2.74539 0.0701468 0
-2.57705 0.0783287 0
-2.74631 0.141147 0
-2.5788 0.156769 0
-2.57705 0.0783287 0
-2.41659 0.083399 0
-2.5788 0.156769 0
-2.41864 0.166289 0
-2.41659 0.083399 0
-2.25804 0.0853167 0
-2.41864 0.166289 0
-2.25985 0.16981 0
-2.25804 0.0853167 0
-2.09766 0.0850357 0
-2.25985 0.16981 0
-2.09894 0.169205 0
-2.09766 0.0850357 0
-1.93367 0.0835523 0
-2.09894 0.169205 0
-1.9344 0.16636 0
-1.93367 0.0835523 0
-1.76562 0.081616 0
-1.9344 0.16636 0
-1.7659 0.162678 0
-1.76562 0.081616 0
-1.59385 0.0797182 0
-1.7659 0.162678 0
-1.59383 0.159078 0
-1.59385 0.0797182 0
-1.41914 0.0781415 0
-1.59383 0.159078 0
-1.41895 0.156093 0
-1.41914 0.0781415 0
-1.24243 0.0770074 0
-1.41895 0.156093 0
-1.24217 0.153951 0
-1.24243 0.0770074 0
-1.06462 0.0763192 0
-1.24217 0.153951 0
-1.06436 0.152655 0
-1.06462 0.0763192 0
-0.886433 0.0760043 0
-1.06436 0.152655 0
-0.88621 0.152068 0
-0.886433 0.0760043 0
-0.708374 0.0759531 0
-0.88621 0.152068 0
-0.708205 0.151979 0
-0.708374 0.0759531 0
-0.530703 0.07605 0
-0.708205 0.151979 0
-0.530588 0.152169 0
-0.530703 0.07605 0
-0.353483 0.0761945 0
-0.530588 0.152169 0
-0.353414 0.152447 0
-0.353483 0.0761945 0
-0.176638 0.0763114 0
-0.353414 0.152447 0
-0.176607 0.152671 0
-0.176638 0.0763114 0
0 0.0763554 0
-0.176607 0.152671 0
0 0.152755 0
0 0.0763554 0
0.176638 0.0763114 0
0 0.152755 0
0.176607 0.152671 0
0.176638 0.0763114 0
0.353483 0.0761945 0
0.176607 0.152671 0
0.353414 0.152447 0
0.353483 0.0761945 0
0.530703 0.07605 0
0.353414 0.152447 0
0.530588 0.152169 0
0.530703 0.07605 0
0.708374 0.0759531 0
0.530588 0.152169 0
0.708205 0.151979 0
0.708374 0.0759531 0
0.886433 0.0760043 0
0.708205 0.151979 0
0.88621 0.152068 0
0.886433 0.0760043 0
1.06462 0.0763192 0
0.88621 0.152068 0
1.06436 0.152655 0
1.06462 0.0763192 0
1.24243 0.0770074 0
1.06436 0.152655 0
1.24217 0.153951 0
1.24243 0.0770074 0
1.41914 0.0781415 0
1.24217 0.153951 0
1.41895 0.156093 0
1.41914 0.0781415 0
1.59385 0.0797182 0
1.41895 0.156093 0
1.59383 0.159078 0
1.59385 0.0797182 0
1.76562 0.081616 0
1.59383 0.159078 0
1.7659 0.162678 0
1.76562 0.081616 0
1.93367 0.0835523 0
1.7659 0.162678 0
1.9344 0.16636 0
1.93367 0.0835523 0
2.09766 0.0850357 0
1.9344 0.16636 0
2.09894 0.169205 0
2.09766 0.0850357 0
2.25804 0.0853167 0
2.09894 0.169205 0
2.25985 0.16981 0
2.25804 0.0853167 0
2.41659 0.083399 0
2.25985 0.16981 0
2.41864 0.166289 0
2.41659 0.083399 0
2.57705 0.0783287 0
2.41864 0.166289 0
2.5788 0.156769 0
2.57705 0.0783287 0
2.74539 0.0701468 0
2.5788 0.156769 0
2.74631 0.141147 0
2.74539 0.0701468 0
2.92786 0.0614546 0
2.74631 0.141147 0
2.92795 0.124245 0
2.92786 0.0614546 0
3.12376 0.0576382 0
2.92795 0.124245 0
3.12359 0.116677 0
3.12376 0.0576382 0
3.31881 0.0625378 0
3.12359 0.116677 0
3.3184 0.126302 0
3.31881 0.0625378 0
3.49898 0.0724252 0
3.3184 0.126302 0
3.49782 0.145451 0
3.49898 0.0724252 0
3.6636 0.0820201 0
3.49782 0.145451 0
3.66181 0.163717 0
3.6636 0.0820201 0
3.81844 0.0887341 0
3.66181 0.163717 0
3.81668 0.176317 0
3.81844 0.0887341 0
3.96867 0.0923728 0
3.81668 0.176317 0
3.9676 0.183083 0
3.96867 0.0923728 0
4.11728 0.0934921 0
3.9676 0.183083 0
4.11728 0.185155 0
-4.11728 0.185155 0
-3.9676 0.183083 0
-4.11728 0.27507 0
-3.96587 0.272226 0
-3.9676 0.183083 0
-3.81668 0.176317 0
-3.96587 0.272226 0
-3.81379 0.26288 0
-3.81668 0.176317 0
-3.66181 0.163717 0
-3.81379 0.26288 0
-3.65884 0.245244 0
-3.66181 0.163717 0
-3.49782 0.145451 0
-3.65884 0.245244 0
-3.4959 0.219145 0
-3.49782 0.145451 0
-3.3184 0.126302 0
-3.4959 0.219145 0
-3.31777 0.191096 0
-3.3184 0.126302 0
-3.12359 0.116677 0
-3.31777 0.191096 0
-3.12333 0.1767 0
-3.12359 0.116677 0
-2.92795 0.124245 0
-3.12333 0.1767 0
-2.92808 0.188187 0
-2.92795 0.124245 0
-2.74631 0.141147 0
-2.92808 0.188187 0
-2.74784 0.213082 0
-2.74631 0.141147 0
-2.5788 0.156769 0
-2.74784 0.213082 0
-2.58166 0.235483 0
-2.5788 0.156769 0
-2.41864 0.166289 0
-2.58166 0.235483 0
-2.42192 0.248799 0
-2.41864 0.166289 0
-2.25985 0.16981 0
-2.42192 0.248799 0
-2.26267 0.253559 0
-2.25985 0.16981 0
-2.09894 0.169205 0
-2.26267 0.253559 0
-2.10091 0.252552 0
-2.09894 0.169205 0
-1.9344 0.16636 0
-2.10091 0.252552 0
-1.93551 0.248443 0
-1.9344 0.16636 0
-1.7659 0.162678 0
-1.93551 0.248443 0
-1.76632 0.243189 0
-1.7659 0.162678 0
-1.59383 0.159078 0
-1.76632 0.243189 0
-1.59378 0.238074 0
-1.59383 0.159078 0
-1.41895 0.156093 0
-1.59378 0.238074 0
-1.41864 0.233844 0
-1.41895 0.156093 0
-1.24217 0.153951 0
-1.41864 0.233844 0
-1.24176 0.230818 0
-1.24217 0.153951 0
-1.06436 0.152655 0
-1.24176 0.230818 0
-1.06395 0.228999 0
-1.06436 0.152655 0
-0.88621 0.152068 0
-1.06395 0.228999 0
-0.885865 0.228184 0
-0.88621 0.152068 0
-0.708205 0.151979 0
-0.885865 0.228184 0
-0.707946 0.228075 0
-0.708205 0.151979 0
-0.530588 0.152169 0
-0.707946 0.228075 0
-0.530413 0.228357 0
-0.530588 0.152169 0
-0.353414 0.152447 0
-0.530413 0.228357 0
-0.353311 0.22876 0
-0.353414 0.152447 0
-0.176607 0.152671 0
-0.353311 0.22876 0
-0.176559 0.229083 0
-0.176607 0.152671 0
0 0.152755 0
-0.176559 0.229083 0
0 0.229203 0
0 0.152755 0
0.176607 0.152671 0
0 0.229203 0
0.176559 0.229083 0
0.176607 0.152671 0
0.353414 0.152447 0
0.176559 0.229083 0
0.353311 0.22876 0
0.353414 0.152447 0
0.530588 0.152169 0
0.353311 0.22876 0
0.530413 0.228357 0
0.530588 0.152169 0
0.708205 0.151979 0
0.530413 0.228357 0
0.707946 0.228075 0
0.708205 0.151979 0
0.88621 0.152068 0
0.707946 0.228075 0
0.885865 0.228184 0
0.88621 0.152068 0
1.06436 0.152655 0
0.885865 0.228184 0
1.06395 0.228999 0
1.06436 0.152655 0
1.24217 0.153951 0
[...]
POINT_DATA 2688
SCALARS x1_displacement double 1
LOOKUP_TABLE default
1.51479 1.42837 1.51479 1.42873 1.42837 1.34369 1.42873 1.34429 1.34369 1.26386 1.34429 1.26446 1.26386 1.19403 1.26446 1.19441 1.19403 1.13976 1.19441 1.13991 1.13976 1.10023 1.13991 1.10029 1.10023 1.06156 1.10029 1.06152 1.06156 1.00964 1.06152 1.00933 1.00964 0.943599 1.00933 0.943005 0.943599 0.869501 0.943005 0.86879 0.869501 0.793305 0.86879 0.792665 0.793305 0.718841 0.792665 0.718377 0.718841 0.647971 0.718377 0.6477 0.647971 0.581197 0.6477 0.581085 0.581197 0.518186 0.581085 0.518185 0.518186 0.458161 0.518185 0.458223 0.458161 0.400174 0.458223 0.400263 0.400174 0.343313 0.400263 0.343405 0.343313 0.286838 0.343405 0.286917 0.286838 0.230244 0.286917 0.230305 0.230244 0.173265 0.230305 0.173306 0.173265 0.115831 0.173306 0.115856 0.115831 0.0580207 0.115856 0.0580321 0.0580207 0 0.0580321 0 0 -0.0580207 0 -0.0580321 -0.0580207 -0.115831 -0.0580321 -0.115856 -0.115831 -0.173265 -0.115856 -0.173306 -0.173265 -0.230244 -0.173306 -0.230305 -0.230244 -0.286838 -0.230305 -0.286917 -0.286838 -0.343313 -0.286917 -0.343405 -0.343313 -0.400174 -0.343405 -0.400263 -0.400174 -0.458161 -0.400263 -0.458223 -0.458161 -0.518186 -0.458223 -0.518185 -0.518186 -0.581197 -0.518185 -0.581085 -0.581197 -0.647971 -0.581085 -0.6477 -0.647971 -0.718841 -0.6477 -0.718377 -0.718841 -0.793305 -0.718377 -0.792665 -0.793305 -0.869501 -0.792665 -0.86879 -0.869501 -0.943599 -0.86879 -0.943005 -0.943599 -1.00964 -0.943005 -1.00933 -1.00964 -1.06156 -1.00933 -1.06152 -1.06156 -1.10023 -1.06152 -1.10029 -1.10023 -1.13976 -1.10029 -1.13991 -1.13976 -1.19403 -1.13991 -1.19441 -1.19403 -1.26386 -1.19441 -1.26446 -1.26386 -1.34369 -1.26446 -1.34429 -1.34369 -1.42837 -1.34429 -1.42873 -1.42837 -1.51479 -1.42873 -1.51479 1.51479 1.42873 1.51479 1.4298 1.42873 1.34429 1.4298 1.34605 1.34429 1.26446 1.34605 1.26625 1.26446 1.19441 1.26625 1.19557 1.19441 1.13991 1.19557 1.14032 1.13991 1.10029 1.14032 1.10046 1.10029 1.06152 1.10046 1.06143 1.06152 1.00933 1.06143 1.00841 1.00933 0.943005 1.00841 0.941254 0.943005 0.86879 0.941254 0.866743 0.86879 0.792665 0.866743 0.790863 0.792665 0.718377 0.790863 0.717095 0.718377 0.6477 0.717095 0.646967 0.6477 0.581085 0.646967 0.580796 0.581085 0.518185 0.580796 0.5182 0.518185 0.458223 0.5182 0.458411 0.458223 0.400263 0.458411 0.400522 0.400263 0.343405 0.400522 0.343665 0.343405 0.286917 0.343665 0.28714 0.286917 0.230305 0.28714 0.230474 0.230305 0.173306 0.230474 0.173421 0.173306 0.115856 0.173421 0.115925 0.115856 0.0580321 0.115925 0.0580634 0.0580321 0 0.0580634 0 0 -0.0580321 0 -0.0580634 -0.0580321 -0.115856 -0.0580634 -0.115925 -0.115856 -0.173306 -0.115925 -0.173421 -0.173306 -0.230305 -0.173421 -0.230474 -0.230305 -0.286917 -0.230474 -0.28714 -0.286917 -0.343405 -0.28714 -0.343665 -0.343405 -0.400263 -0.343665 -0.400522 -0.400263 -0.458223 -0.400522 -0.458411 -0.458223 -0.518185 -0.458411 -0.5182 -0.518185 -0.581085 -0.5182 -0.580796 -0.581085 -0.6477 -0.580796 -0.646967 -0.6477 -0.718377 -0.646967 -0.717095 -0.718377 -0.792665 -0.717095 -0.790863 -0.792665 -0.86879 -0.790863 -0.866743 -0.86879 -0.943005 -0.866743 -0.941254 -0.943005 -1.00933 -0.941254 -1.00841 -1.00933 -1.06152 -1.00841 -1.06143 -1.06152 -1.10029 -1.06143 -1.10046 -1.10029 -1.13991 -1.10046 -1.14032 -1.13991 -1.19441 -1.14032 -1.19557 -1.19441 -1.26446 -1.19557 -1.26625 -1.26446 -1.34429 -1.26625 -1.34605 -1.34429 -1.42873 -1.34605 -1.4298 -1.42873 -1.51479 -1.4298 -1.51479 1.51479 1.4298 1.51479 1.43153 1.4298 1.34605 1.43153 1.34894 1.34605 1.26625 1.34894 1.26922 1.26625 1.19557 1.26922 1.19749 1.19557 1.14032 1.19749 1.14095 1.14032 1.10046 1.14095 1.10072 1.10046 1.06143 1.10072 1.0613 1.06143 1.00841 1.0613 1.00688 1.00841 0.941254 1.00688 0.938388 0.941254 0.866743 0.938388 0.863465 0.866743 0.790863 0.863465 0.788041 0.790863 0.717095 0.788041 0.715127 0.717095 0.646967 0.715127 0.645863 0.646967 0.580796 0.645863 0.58038 0.580796 0.5182 0.58038 0.518246 0.5182 0.458411 0.518246 0.458718 0.458411 0.400522 0.458718 0.400932 0.400522 0.343665 0.400932 0.344072 0.343665 0.28714 0.344072 0.287485 0.28714 0.230474 0.287485 0.230733 0.230474 0.173421 0.230733 0.173596 0.173421 0.115925 0.173596 0.116028 0.115925 0.0580634 0.116028 0.0581106 0.0580634 0 0.0581106 0 0 -0.0580634 0 -0.0581106 -0.0580634 -0.115925 -0.0581106 -0.116028 -0.115925 -0.173421 -0.116028 -0.173596 -0.173421 -0.230474 -0.173596 -0.230733 -0.230474 -0.28714 -0.230733 -0.287485 -0.28714 -0.343665 -0.287485 -0.344072 -0.343665 -0.400522 -0.344072 -0.400932 -0.400522 -0.458411 -0.400932 -0.458718 -0.458411 -0.5182 -0.458718 -0.518246 -0.5182 -0.580796 -0.518246 -0.58038 -0.580796 -0.646967 -0.58038 -0.645863 -0.646967 -0.717095 -0.645863 -0.715127 -0.717095 -0.790863 -0.715127 -0.788041 -0.790863 -0.866743 -0.788041 -0.863465 -0.866743 -0.941254 -0.863465 -0.938388 -0.941254 -1.00841 -0.938388 -1.00688 -1.00841 -1.06143 -1.00688 -1.0613 -1.06143 -1.10046 -1.0613 -1.10072 -1.10046 -1.14032 -1.10072 -1.14095 -1.14032 -1.19557 -1.14095 -1.19749 -1.19557 -1.26625 -1.19749 -1.26922 -1.26625 -1.34605 -1.26922 -1.34894 -1.34605 -1.4298 -1.34894 -1.43153 -1.4298 -1.51479 -1.43153 -1.51479 1.51479 1.43153 1.51479 1.43391 1.43153 1.34894 1.43391 1.35299 1.34894 1.26922 1.35299 1.27349 1.26922 1.19749 1.27349 1.2003 1.19749 1.14095 1.2003 1.14185 1.14095 1.10072 1.14185 1.10106 1.10072 1.0613 1.10106 1.06109 1.0613 1.00688 1.06109 1.00464 1.00688 0.938388 1.00464 0.934335 0.938388 0.863465 0.934335 0.859004 0.863465 0.788041 0.859004 0.784327 0.788041 0.715127 0.784327 0.712613 0.715127 0.645863 0.712613 0.644501 0.645863 0.58038 0.644501 0.579907 0.58038 0.518246 0.579907 0.51836 0.518246 0.458718 0.51836 0.459152 0.458718 0.400932 0.459152 0.401486 0.400932 0.344072 0.401486 0.344611 0.344072 0.287485 0.344611 0.287935 0.287485 0.230733 0.287935 0.231067 0.230733 0.173596 0.231067 0.173818 0.173596 0.116028 0.173818 0.116158 0.116028 0.0581106 0.116158 0.0581688 0.0581106 0 0.0581688 0 0 -0.0581106 0 -0.0581688 -0.0581106 -0.116028 -0.0581688 -0.116158 -0.116028 -0.173596 -0.116158 -0.173818 -0.173596 -0.230733 -0.173818 -0.231067 -0.230733 -0.287485 -0.231067 -0.287935 -0.287485 -0.344072 -0.287935 -0.344611 -0.344072 -0.400932 -0.344611 -0.401486 -0.400932 -0.458718 -0.401486 -0.459152 -0.458718 -0.518246 -0.459152 -0.51836 -0.518246 -0.58038 -0.51836 -0.579907 -0.58038 -0.645863 -0.579907 -0.644501 -0.645863 -0.715127 -0.644501 -0.712613 -0.715127 -0.788041 -0.712613 -0.784327 -0.788041 -0.863465 -0.784327 -0.859004 -0.863465 -0.938388 -0.859004 -0.934335 -0.938388 -1.00688 -0.934335 -1.00464 -1.00688 -1.0613 -1.00464 -1.06109 -1.0613 -1.10072 -1.06109 -1.10106 -1.10072 -1.14095 -1.10106 -1.14185 -1.14095 -1.19749 -1.14185 -1.2003 -1.19749 -1.26922 -1.2003 -1.27349 -1.26922 -1.34894 -1.27349 -1.35299 -1.34894 -1.43153 -1.35299 -1.43391 -1.43153 -1.51479 -1.43391 -1.51479 1.51479 1.43391 1.51479 1.43694 1.43391 1.35299 1.43694 1.35828 1.35299 1.27349 1.35828 1.27927 1.27349 1.2003 1.27927 1.20425 1.2003 1.14185 1.20425 1.14311 1.14185 1.10106 1.14311 1.10147 1.10106 1.06109 1.10147 1.06067 1.06109 1.00464 1.06067 1.00142 1.00464 0.934335 1.00142 0.928929 0.934335 0.859004 0.928929 0.853374 0.859004 0.784327 0.853374 0.779853 0.784327 0.712613 0.779853 0.709707 0.712613 0.644501 0.709707 0.643004 0.644501 0.579907 0.643004 0.579461 0.579907 0.51836 0.579461 0.518587 0.51836 0.459152 0.518587 0.459734 0.459152 0.401486 0.459734 0.402183 0.401486 0.344611 0.402183 0.345269 0.344611 0.287935 0.345269 0.288472 0.287935 0.231067 0.288472 0.231457 0.231067 0.173818 0.231457 0.174072 0.173818 0.116158 0.174072 0.116302 0.116158 0.0581688 0.116302 0.0582326 0.0581688 0 0.0582326 0 0 -0.0581688 0 -0.0582326 -0.0581688 -0.116158 -0.0582326 -0.116302 -0.116158 -0.173818 -0.116302 -0.174072 -0.173818 -0.231067 -0.174072 -0.231457 -0.231067 -0.287935 -0.231457 -0.288472 -0.287935 -0.344611 -0.288472 -0.345269 -0.344611 -0.401486 -0.345269 -0.402183 -0.401486 -0.459152 -0.402183 -0.459734 -0.459152 -0.51836 -0.459734 -0.518587 -0.51836 -0.579907 -0.518587 -0.579461 -0.579907 -0.644501 -0.579461 -0.643004 -0.644501 -0.712613 -0.643004 -0.709707 -0.712613 -0.784327 -0.709707 -0.779853 -0.784327 -0.859004 -0.779853 -0.853374 -0.859004 -0.934335 -0.853374 -0.928929 -0.934335 -1.00464 -0.928929 -1.00142 -1.00464 -1.06109 -1.00142 -1.06067 -1.06109 -1.10106 -1.06067 -1.10147 -1.10106 -1.14185 -1.10147 -1.14311 -1.14185 -1.2003 -1.14311 -1.20425 -1.2003 -1.27349 -1.20425 -1.27927 -1.27349 -1.35299 -1.27927 -1.35828 -1.35299 -1.43391 -1.35828 -1.43694 -1.43391 -1.51479 -1.43694 -1.51479 1.51479 1.43694 1.51479 1.44061 1.43694 1.35828 1.44061 1.36488 1.35828 1.27927 1.36488 1.28686 1.27927 1.20425 1.28686 1.20979 1.20425 1.14311 1.20979 1.14495 1.14311 1.10147 1.14495 1.10194 1.10147 1.06067 1.10194 1.05984 1.06067 1.00142 1.05984 0.996848 1.00142 0.928929 0.996848 0.92192 0.928929 0.853374 0.92192 0.846586 0.853374 0.779853 0.846586 0.774769 0.779853 0.709707 0.774769 0.706577 0.709707 0.643004 0.706577 0.641512 0.643004 0.579461 0.641512 0.579138 0.579461 0.518587 0.579138 0.518986 0.518587 0.459734 0.518986 0.460488 0.459734 0.402183 0.460488 0.403026 0.402183 0.345269 0.403026 0.346035 0.345269 0.288472 0.346035 0.289077 0.288472 0.231457 0.289077 0.231883 0.231457 0.174072 0.231883 0.17434 0.174072 0.116302 0.17434 0.11645 0.116302 0.0582326 0.11645 0.0582957 0.0582326 0 0.0582957 0 0 -0.0582326 0 -0.0582957 -0.0582326 -0.116302 -0.0582957 -0.11645 -0.116302 -0.174072 -0.11645 -0.17434 -0.174072 -0.231457 -0.17434 -0.231883 -0.231457 -0.288472 -0.231883 -0.289077 -0.288472 -0.345269 -0.289077 -0.346035 -0.345269 -0.402183 -0.346035 -0.403026 -0.402183 -0.459734 -0.403026 -0.460488 -0.459734 -0.518587 -0.460488 -0.518986 -0.518587 -0.579461 -0.518986 -0.579138 -0.579461 -0.643004 -0.579138 -0.641512 -0.643004 -0.709707 -0.641512 -0.706577 -0.709707 -0.779853 -0.706577 -0.774769 -0.779853 -0.853374 -0.774769 -0.846586 -0.853374 -0.928929 -0.846586 -0.92192 -0.928929 -1.00142 -0.92192 -0.996848 -1.00142 -1.06067 -0.996848 -1.05984 -1.06067 -1.10147 -1.05984 -1.10194 -1.10147 -1.14311 -1.10194 -1.14495 -1.14311 -1.20425 -1.14495 -1.20979 -1.20425 -1.27927 -1.20979 -1.28686 -1.27927 -1.35828 -1.28686 -1.36488 -1.35828 -1.43694 -1.36488 -1.44061 -1.43694 -1.51479 -1.44061 -1.51479 1.51479 1.44061 1.51479 1.44485 1.44061 1.36488 1.44485 1.37284 1.36488 1.28686 1.37284 1.29662 1.28686 1.20979 1.29662 1.2175 1.20979 1.14495 1.2175 1.14773 1.14495 1.10194 1.14773 1.10248 1.10194 1.05984 1.10248 1.05826 1.05984 0.996848 1.05826 0.990335 0.996848 0.92192 0.990335 0.913003 0.92192 0.846586 0.913003 0.838684 0.846586 0.774769 0.838684 0.76926 0.774769 0.706577 0.76926 0.70341 0.706577 0.641512 0.70341 0.640172 0.641512 0.579138 0.640172 0.579044 0.579138 0.518986 0.579044 0.519621 0.518986 0.460488 0.519621 0.461445 0.460488 0.403026 0.461445 0.404023 0.403026 0.346035 0.404023 0.346899 0.346035 0.289077 0.346899 0.289734 0.289077 0.231883 0.289734 0.232327 0.231883 0.17434 0.232327 0.174604 0.17434 0.11645 0.174604 0.116587 0.11645 0.0582957 0.116587 0.0583513 0.0582957 0 0.0583513 0 0 -0.0582957 0 -0.0583513 -0.0582957 -0.11645 -0.0583513 -0.116587 -0.11645 -0.17434 -0.116587 -0.174604 -0.17434 -0.231883 -0.174604 -0.232327 -0.231883 -0.289077 -0.232327 -0.289734 -0.289077 -0.346035 -0.289734 -0.346899 -0.346035 -0.403026 -0.346899 -0.404023 -0.403026 -0.460488 -0.404023 -0.461445 -0.460488 -0.518986 -0.461445 -0.519621 -0.518986 -0.579138 -0.519621 -0.579044 -0.579138 -0.641512 -0.579044 -0.640172 -0.641512 -0.706577 -0.640172 -0.70341 -0.706577 -0.774769 -0.70341 -0.76926 -0.774769 -0.846586 -0.76926 -0.838684 -0.846586 -0.92192 -0.838684 -0.913003 -0.92192 -0.996848 -0.913003 -0.990335 -0.996848 -1.05984 -0.990335 -1.05826 -1.05984 -1.10194 -1.05826 -1.10248 -1.10194 -1.14495 -1.10248 -1.14773 -1.14495 -1.20979 -1.14773 -1.2175 -1.20979 -1.28686 -1.2175 -1.29662 -1.28686 -1.36488 -1.29662 -1.37284 -1.36488 -1.44061 -1.37284 -1.44485 -1.44061 -1.51479 -1.44485 -1.51479 1.51479 1.44485 1.51479 1.44958 1.44485 1.37284 1.44958 1.38209 1.37284 1.29662 1.38209 1.3089 1.29662 1.2175 1.3089 1.22823 1.2175 1.14773 1.22823 1.15202 1.14773 1.10248 1.15202 1.10306 1.10248 1.05826 1.10306 1.05535 1.05826 0.990335 1.05535 0.981065 0.990335 0.913003 0.981065 0.901872 0.913003 0.838684 0.901872 0.829805 0.838684 0.76926 0.829805 0.763559 0.76926 0.70341 0.763559 0.700408 0.70341 0.640172 0.700408 0.639139 0.640172 0.579044 0.639139 0.579287 0.579044 0.519621 0.579287 0.520558 0.519621 0.461445 0.520558 0.462638 0.461445 0.404023 0.462638 0.405177 0.404023 0.346899 0.405177 0.34785 0.346899 0.289734 0.34785 0.290422 0.289734 0.232327 0.290422 0.232764 0.232327 0.174604 0.232764 0.174847 0.174604 0.116587 0.174847 0.116701 0.116587 0.0583513 0.116701 0.0583921 0.0583513 0 0.0583921 0 0 -0.0583513 0 -0.0583921 -0.0583513 -0.116587 -0.0583921 -0.116701 -0.116587 -0.174604 -0.116701 -0.174847 -0.174604 -0.232327 -0.174847 -0.232764 -0.232327 -0.289734 -0.232764 -0.290422 -0.289734 -0.346899 -0.290422 -0.34785 -0.346899 -0.404023 -0.34785 -0.405177 -0.404023 -0.461445 -0.405177 -0.462638 -0.461445 -0.519621 -0.462638 -0.520558 -0.519621 -0.579044 -0.520558 -0.579287 -0.579044 -0.640172 -0.579287 -0.639139 -0.640172 -0.70341 -0.639139 -0.700408 -0.70341 -0.76926 -0.700408 -0.763559 -0.76926 -0.838684 -0.763559 -0.829805 -0.838684 -0.913003 -0.829805 -0.901872 -0.913003 -0.990335 -0.901872 -0.981065 -0.990335 -1.05826 -0.981065 -1.05535 -1.05826 -1.10248 -1.05535 -1.10306 -1.10248 -1.14773 -1.10306 -1.15202 -1.14773 -1.2175 -1.15202 -1.22823 -1.2175 -1.29662 -1.22823 -1.3089 -1.29662 -1.37284 -1.3089 -1.38209 -1.37284 -1.44485 -1.38209 -1.44958 -1.44485 -1.51479 -1.44958 -1.51479 1.51479 1.44958 1.51479 1.45463 1.44958 1.38209 1.45463 1.39241 1.38209 1.3089 1.39241 1.3239 1.3089 1.22823 1.3239 1.24312 1.22823 1.15202 1.24312 1.1588 1.15202 1.10306 1.1588 1.10368 1.10306 1.05535 1.10368 1.05015 1.05535 0.981065 1.05015 0.967916 0.981065 0.901872 0.967916 0.888332 0.901872 0.829805 0.888332 0.820235 0.829805 0.763559 0.820235 0.757946 0.763559 0.700408 0.757946 0.69778 0.700408 0.639139 0.69778 0.638573 0.639139 0.579287 0.638573 0.579979 0.579287 0.520558 0.579979 0.521866 0.520558 0.462638 0.521866 0.464097 0.462638 0.405177 0.464097 0.406493 0.405177 0.34785 0.406493 0.348874 0.34785 0.290422 0.348874 0.291118 0.290422 0.232764 0.291118 0.233173 0.232764 0.174847 0.233173 0.175046 0.174847 0.116701 0.175046 0.116775 0.116701 0.0583921 0.116775 0.0584105 0.0583921 0 0.0584105 0 0 -0.0583921 0 -0.0584105 -0.0583921 -0.116701 -0.0584105 -0.116775 -0.116701 -0.174847 -0.116775 -0.175046 -0.174847 -0.232764 -0.175046 -0.233173 -0.232764 -0.290422 -0.233173 -0.291118 -0.290422 -0.34785 -0.291118 -0.348874 -0.34785 -0.405177 -0.348874 -0.406493 -0.405177 -0.462638 -0.406493 -0.464097 -0.462638 -0.520558 -0.464097 -0.521866 -0.520558 -0.579287 -0.521866 -0.579979 -0.579287 -0.639139 -0.579979 -0.638573 -0.639139 -0.700408 -0.638573 -0.69778 -0.700408 -0.763559 -0.69778 -0.757946 -0.763559 -0.829805 -0.757946 -0.820235 -0.829805 -0.901872 -0.820235 -0.888332 -0.901872 -0.981065 -0.888332 -0.967916 -0.981065 -1.05535 -0.967916 -1.05015 -1.05535 -1.10306 -1.05015 -1.10368 -1.10306 -1.15202 -1.10368 -1.1588 -1.15202 -1.22823 -1.1588 -1.24312 -1.22823 -1.3089 -1.24312 -1.3239 -1.3089 -1.38209 -1.3239 -1.39241 -1.38209 -1.44958 -1.39241 -1.45463 -1.44958 -1.51479 -1.45463 -1.51479 1.51479 1.45463 1.51479 1.45986 1.45463 1.39241 1.45986 1.40337 1.39241 1.3239 1.40337 1.34147 1.3239 1.24312 1.34147 1.26361 1.24312 1.1588 1.26361 1.16977 1.1588 1.10368 1.16977 1.10433 1.10368 1.05015 1.10433 1.04099 1.05015 0.967916 1.04099 0.949436 0.967916 0.888332 0.949436 0.872533 0.888332 0.820235 0.872533 0.810445 0.820235 0.757946 0.810445 0.75272 0.757946 0.69778 0.75272 0.695743 0.69778 0.638573 0.695743 0.638638 0.638573 0.579979 0.638638 0.581233 0.579979 0.521866 0.581233 0.523611 0.521866 0.464097 0.523611 0.465851 0.464097 0.406493 0.465851 0.40797 0.406493 0.348874 0.40797 0.349952 0.348874 0.291118 0.349952 0.291795 0.291118 0.233173 0.291795 0.233524 0.233173 0.175046 0.233524 0.175178 0.175046 0.116775 0.175178 0.116795 0.116775 0.0584105 0.116795 0.0583985 0.0584105 0 0.0583985 0 0 -0.0584105 0 -0.0583985 -0.0584105 -0.116775 -0.0583985 -0.116795 -0.116775 -0.175046 -0.116795 -0.175178 -0.175046 -0.233173 -0.175178 -0.233524 -0.233173 -0.291118 -0.233524 -0.291795 -0.291118 -0.348874 -0.291795 -0.349952 -0.348874 -0.406493 -0.349952 -0.40797 -0.406493 -0.464097 -0.40797 -0.465851 -0.464097 -0.521866 -0.465851 -0.523611 -0.521866 -0.579979 -0.523611 -0.581233 -0.579979 -0.638573 -0.581233 -0.638638 -0.638573 -0.69778 -0.638638 -0.695743 -0.69778 -0.757946 -0.695743 -0.75272 -0.757946 -0.820235 -0.75272 -0.810445 -0.820235 -0.888332 -0.810445 -0.872533 -0.888332 -0.967916 -0.872533 -0.949436 -0.967916 -1.05015 -0.949436 -1.04099 -1.05015 -1.10368 -1.04099 -1.10433 -1.10368 -1.1588 -1.10433 -1.16977 -1.1588 -1.24312 -1.16977 -1.26361 -1.24312 -1.3239 -1.26361 -1.34147 -1.3239 -1.39241 -1.34147 -1.40337 -1.39241 -1.45463 -1.40337 -1.45986 -1.45463 -1.51479 -1.45986 -1.51479 1.51479 1.45986 1.51479 1.4651 1.45986 1.40337 1.4651 1.41444 1.40337 1.34147 1.41444 1.3607 1.34147 1.26361 1.3607 1.2912 1.26361 1.16977 1.2912 1.18802 1.16977 1.10433 1.18802 1.10499 1.10433 1.04099 1.10499 1.02475 1.04099 0.949436 1.02475 0.924044 0.949436 0.872533 0.924044 0.855358 0.872533 0.810445 0.855358 0.801023 0.810445 0.75272 0.801023 0.748159 0.75272 0.695743 0.748159 0.694524 0.695743 0.638638 0.694524 0.6395 0.638638 0.581233 0.6395 0.58316 0.581233 0.523611 0.58316 0.525858 0.523611 0.465851 0.525858 0.467925 0.465851 0.40797 0.467925 0.409603 0.40797 0.349952 0.409603 0.351061 0.349952 0.291795 0.351061 0.292424 0.291795 0.233524 0.292424 0.23379 0.233524 0.175178 0.23379 0.175221 0.175178 0.116795 0.175221 0.116743 0.116795 0.0583985 0.116743 0.0583478 0.0583985 0 0.0583478 0 0 -0.0583985 0 -0.0583478 -0.0583985 -0.116795 -0.0583478 -0.116743 -0.116795 -0.175178 -0.116743 -0.175221 -0.175178 -0.233524 -0.175221 -0.23379 -0.233524 -0.291795 -0.23379 -0.292424 -0.291795 -0.349952 -0.292424 -0.351061 -0.349952 -0.40797 -0.351061 -0.409603 -0.40797 -0.465851 -0.409603 -0.467925 -0.465851 -0.523611 -0.467925 -0.525858 -0.523611 -0.581233 -0.525858 -0.58316 -0.581233 -0.638638 -0.58316 -0.6395 -0.638638 -0.695743 -0.6395 -0.694524 -0.695743 -0.75272 -0.694524 -0.748159 -0.75272 -0.810445 -0.748159 -0.801023 -0.810445 -0.872533 -0.801023 -0.855358 -0.872533 -0.949436 -0.855358 -0.924044 -0.949436 -1.04099 -0.924044 -1.02475 -1.04099 -1.10433 -1.02475 -1.10499 -1.10433 -1.16977 -1.10499 -1.18802 -1.16977 -1.26361 -1.18802 -1.2912 -1.26361 -1.34147 -1.2912 -1.3607 -1.34147 -1.40337 -1.3607 -1.41444 -1.40337 -1.45986 -1.41444 -1.4651 -1.45986 -1.51479 -1.4651 -1.51479 1.51479 1.4651 1.51479 1.47019 1.4651 1.41444 1.47019 1.42526 1.41444 1.3607 1.42526 1.37965 1.3607 1.2912 1.37965 1.32613 1.2912 1.18802 1.32613 1.21994 1.18802 1.10499 1.21994 1.10562 1.10499 1.02475 1.10562 0.994996 1.02475 0.924044 0.994996 0.891395 0.924044 0.855358 0.891395 0.838734 0.855358 0.801023 0.838734 0.792389 0.801023 0.748159 0.792389 0.744545 0.748159 0.694524 0.744545 0.694355 0.694524 0.6395 0.694355 0.641317 0.6395 0.58316 0.641317 0.585872 0.58316 0.525858 0.585872 0.528669 0.525858 0.467925 0.528669 0.470337 0.467925 0.409603 0.470337 0.411379 0.409603 0.351061 0.411379 0.352169 0.351061 0.292424 0.352169 0.292967 0.292424 0.23379 0.292967 0.233935 0.23379 0.175221 0.233935 0.175147 0.175221 0.116743 0.175147 0.116603 0.116743 0.0583478 0.116603 0.0582498 0.0583478 0 0.0582498 0 0 -0.0583478 0 -0.0582498 -0.0583478 -0.116743 -0.0582498 -0.116603 -0.116743 -0.175221 -0.116603 -0.175147 -0.175221 -0.23379 -0.175147 -0.233935 -0.23379 -0.292424 -0.233935 -0.292967 -0.292424 -0.351061 -0.292967 -0.3