# vtk DataFile Version 3.0
#This file was generated by the deal.II library on 2017/9/27 at 13:18:12
ASCII
DATASET UNSTRUCTURED_GRID

POINTS 2688 double
-3.71074 -6.13246e-23 0
-3.58575 0 0
-3.71074 0.101031 0
-3.58545 0.0991479 0
-3.58575 0 0
-3.45748 0 0
-3.58545 0.0991479 0
-3.457 0.0933983 0
-3.45748 0 0
-3.32155 0 0
-3.457 0.0933983 0
-3.32109 0.0838227 0
-3.32155 0 0
-3.1721 0 0
-3.32109 0.0838227 0
-3.1718 0.071599 0
-3.1721 0 0
-3.00358 0 0
-3.1718 0.071599 0
-3.00345 0.0601551 0
-3.00358 0 0
-2.81777 0 0
-3.00345 0.0601551 0
-2.8177 0.0546293 0
-2.81777 0 0
-2.63001 0 0
-2.8177 0.0546293 0
-2.63002 0.0581471 0
-2.63001 0 0
-2.45651 0 0
-2.63002 0.0581471 0
-2.45674 0.0676123 0
-2.45651 0 0
-2.30012 0 0
-2.45674 0.0676123 0
-2.30062 0.0778743 0
-2.30012 0 0
-2.15543 0 0
-2.30062 0.0778743 0
-2.15611 0.085534 0
-2.15543 0 0
-2.01613 0 0
-2.15611 0.085534 0
-2.0168 0.089601 0
-2.01613 0 0
-1.87743 0 0
-2.0168 0.089601 0
-1.87797 0.0904994 0
-1.87743 0 0
-1.73625 0 0
-1.87797 0.0904994 0
-1.7366 0.0891225 0
-1.73625 0 0
-1.59081 0 0
-1.7366 0.0891225 0
-1.59098 0.0863918 0
-1.59081 0 0
-1.44035 0 0
-1.59098 0.0863918 0
-1.44037 0.0831265 0
-1.44035 0 0
-1.28497 0 0
-1.44037 0.0831265 0
-1.2849 0.0800085 0
-1.28497 0 0
-1.12551 0 0
-1.2849 0.0800085 0
-1.12539 0.0775464 0
-1.12551 0 0
-0.963377 0 0
-1.12539 0.0775464 0
-0.963241 0.0760264 0
-0.963377 0 0
-0.800195 0 0
-0.963241 0.0760264 0
-0.800072 0.0754849 0
-0.800195 0 0
-0.637402 0 0
-0.800072 0.0754849 0
-0.637305 0.0757367 0
-0.637402 0 0
-0.475931 0 0
-0.637305 0.0757367 0
-0.475864 0.0764569 0
-0.475931 0 0
-0.316091 0 0
-0.475864 0.0764569 0
-0.316052 0.0772859 0
-0.316091 0 0
-0.157651 0 0
-0.316052 0.0772859 0
-0.157633 0.0779169 0
-0.157651 0 0
0 0 0
-0.157633 0.0779169 0
0 0.07815 0
0 0 0
0.157651 4.2709e-24 0
0 0.07815 0
0.157633 0.0779169 0
0.157651 4.2709e-24 0
0.316091 5.44964e-24 0
0.157633 0.0779169 0
0.316052 0.0772859 0
0.316091 5.44964e-24 0
0.475931 -2.10347e-23 0
0.316052 0.0772859 0
0.475864 0.0764569 0
0.475931 -2.10347e-23 0
0.637402 -1.51015e-23 0
0.475864 0.0764569 0
0.637305 0.0757367 0
0.637402 -1.51015e-23 0
0.800195 -3.6548e-23 0
0.637305 0.0757367 0
0.800072 0.0754849 0
0.800195 -3.6548e-23 0
0.963377 1.08158e-23 0
0.800072 0.0754849 0
0.963241 0.0760264 0
0.963377 1.08158e-23 0
1.12551 1.80784e-23 0
0.963241 0.0760264 0
1.12539 0.0775464 0
1.12551 1.80784e-23 0
1.28497 3.47843e-24 0
1.12539 0.0775464 0
1.2849 0.0800085 0
1.28497 3.47843e-24 0
1.44035 -4.11935e-23 0
1.2849 0.0800085 0
1.44037 0.0831265 0
1.44035 -4.11935e-23 0
1.59081 -1.46593e-23 0
1.44037 0.0831265 0
1.59098 0.0863918 0
1.59081 -1.46593e-23 0
1.73625 -3.96444e-23 0
1.59098 0.0863918 0
1.7366 0.0891225 0
1.73625 -3.96444e-23 0
1.87743 -1.24987e-23 0
1.7366 0.0891225 0
1.87797 0.0904994 0
1.87743 -1.24987e-23 0
2.01613 5.38185e-23 0
1.87797 0.0904994 0
2.0168 0.089601 0
2.01613 5.38185e-23 0
2.15543 3.87931e-23 0
2.0168 0.089601 0
2.15611 0.085534 0
2.15543 3.87931e-23 0
2.30012 2.3312e-23 0
2.15611 0.085534 0
2.30062 0.0778743 0
2.30012 2.3312e-23 0
2.45651 1.01666e-23 0
2.30062 0.0778743 0
2.45674 0.0676123 0
2.45651 1.01666e-23 0
2.63001 2.2659e-23 0
2.45674 0.0676123 0
2.63002 0.0581471 0
2.63001 2.2659e-23 0
2.81777 1.28953e-23 0
2.63002 0.0581471 0
2.8177 0.0546293 0
2.81777 1.28953e-23 0
3.00358 1.95599e-23 0
2.8177 0.0546293 0
3.00345 0.0601551 0
3.00358 1.95599e-23 0
3.1721 -4.47895e-24 0
3.00345 0.0601551 0
3.1718 0.071599 0
3.1721 -4.47895e-24 0
3.32155 -2.72332e-23 0
3.1718 0.071599 0
3.32109 0.0838227 0
3.32155 -2.72332e-23 0
3.45748 -4.55905e-23 0
3.32109 0.0838227 0
3.457 0.0933983 0
3.45748 -4.55905e-23 0
3.58575 3.42588e-23 0
3.457 0.0933983 0
3.58545 0.0991479 0
3.58575 3.42588e-23 0
3.71074 -6.13246e-23 0
3.58545 0.0991479 0
3.71074 0.101031 0
-3.71074 0.101031 0
-3.58545 0.0991479 0
-3.71074 0.199528 0
-3.5845 0.196018 0
-3.58545 0.0991479 0
-3.457 0.0933983 0
-3.5845 0.196018 0
-3.45547 0.185264 0
-3.457 0.0933983 0
-3.32109 0.0838227 0
-3.45547 0.185264 0
-3.31961 0.16722 0
-3.32109 0.0838227 0
-3.1718 0.071599 0
-3.31961 0.16722 0
-3.17088 0.143913 0
-3.1718 0.071599 0
-3.00345 0.0601551 0
-3.17088 0.143913 0
-3.0031 0.121773 0
-3.00345 0.0601551 0
-2.8177 0.0546293 0
-3.0031 0.121773 0
-2.81752 0.110963 0
-2.8177 0.0546293 0
-2.63002 0.0581471 0
-2.81752 0.110963 0
-2.63002 0.117931 0
-2.63002 0.0581471 0
-2.45674 0.0676123 0
-2.63002 0.117931 0
-2.45745 0.136344 0
-2.45674 0.0676123 0
-2.30062 0.0778743 0
-2.45745 0.136344 0
-2.30217 0.155997 0
-2.30062 0.0778743 0
-2.15611 0.085534 0
-2.30217 0.155997 0
-2.15811 0.170473 0
-2.15611 0.085534 0
-2.0168 0.089601 0
-2.15811 0.170473 0
-2.01875 0.178071 0
-2.0168 0.089601 0
-1.87797 0.0904994 0
-2.01875 0.178071 0
-1.8795 0.17969 0
-1.87797 0.0904994 0
-1.7366 0.0891225 0
-1.8795 0.17969 0
-1.73756 0.177038 0
-1.7366 0.0891225 0
-1.59098 0.0863918 0
-1.73756 0.177038 0
-1.59141 0.171846 0
-1.59098 0.0863918 0
-1.44037 0.0831265 0
-1.59141 0.171846 0
-1.4404 0.165649 0
-1.44037 0.0831265 0
-1.2849 0.0800085 0
-1.4404 0.165649 0
-1.28466 0.159733 0
-1.2849 0.0800085 0
-1.12539 0.0775464 0
-1.28466 0.159733 0
-1.12502 0.155064 0
-1.12539 0.0775464 0
-0.963241 0.0760264 0
-1.12502 0.155064 0
-0.962852 0.15219 0
-0.963241 0.0760264 0
-0.800072 0.0754849 0
-0.962852 0.15219 0
-0.799725 0.151182 0
-0.800072 0.0754849 0
-0.637305 0.0757367 0
-0.799725 0.151182 0
-0.637038 0.151683 0
-0.637305 0.0757367 0
-0.475864 0.0764569 0
-0.637038 0.151683 0
-0.475684 0.153072 0
-0.475864 0.0764569 0
-0.316052 0.0772859 0
-0.475684 0.153072 0
-0.315949 0.15466 0
-0.316052 0.0772859 0
-0.157633 0.0779169 0
-0.315949 0.15466 0
-0.157589 0.155866 0
-0.157633 0.0779169 0
0 0.07815 0
-0.157589 0.155866 0
0 0.156312 0
0 0.07815 0
0.157633 0.0779169 0
0 0.156312 0
0.157589 0.155866 0
0.157633 0.0779169 0
0.316052 0.0772859 0
0.157589 0.155866 0
0.315949 0.15466 0
0.316052 0.0772859 0
0.475864 0.0764569 0
0.315949 0.15466 0
0.475684 0.153072 0
0.475864 0.0764569 0
0.637305 0.0757367 0
0.475684 0.153072 0
0.637038 0.151683 0
0.637305 0.0757367 0
0.800072 0.0754849 0
0.637038 0.151683 0
0.799725 0.151182 0
0.800072 0.0754849 0
0.963241 0.0760264 0
0.799725 0.151182 0
0.962852 0.15219 0
0.963241 0.0760264 0
1.12539 0.0775464 0
0.962852 0.15219 0
1.12502 0.155064 0
1.12539 0.0775464 0
1.2849 0.0800085 0
1.12502 0.155064 0
1.28466 0.159733 0
1.2849 0.0800085 0
1.44037 0.0831265 0
1.28466 0.159733 0
1.4404 0.165649 0
1.44037 0.0831265 0
1.59098 0.0863918 0
1.4404 0.165649 0
1.59141 0.171846 0
1.59098 0.0863918 0
1.7366 0.0891225 0
1.59141 0.171846 0
1.73756 0.177038 0
1.7366 0.0891225 0
1.87797 0.0904994 0
1.73756 0.177038 0
1.8795 0.17969 0
1.87797 0.0904994 0
2.0168 0.089601 0
1.8795 0.17969 0
2.01875 0.178071 0
2.0168 0.089601 0
2.15611 0.085534 0
2.01875 0.178071 0
2.15811 0.170473 0
2.15611 0.085534 0
2.30062 0.0778743 0
2.15811 0.170473 0
2.30217 0.155997 0
2.30062 0.0778743 0
2.45674 0.0676123 0
2.30217 0.155997 0
2.45745 0.136344 0
2.45674 0.0676123 0
2.63002 0.0581471 0
2.45745 0.136344 0
2.63002 0.117931 0
2.63002 0.0581471 0
2.8177 0.0546293 0
2.63002 0.117931 0
2.81752 0.110963 0
2.8177 0.0546293 0
3.00345 0.0601551 0
2.81752 0.110963 0
3.0031 0.121773 0
3.00345 0.0601551 0
3.1718 0.071599 0
3.0031 0.121773 0
3.17088 0.143913 0
3.1718 0.071599 0
3.32109 0.0838227 0
3.17088 0.143913 0
3.31961 0.16722 0
3.32109 0.0838227 0
3.457 0.0933983 0
3.31961 0.16722 0
3.45547 0.185264 0
3.457 0.0933983 0
3.58545 0.0991479 0
3.45547 0.185264 0
3.5845 0.196018 0
3.58545 0.0991479 0
3.71074 0.101031 0
3.5845 0.196018 0
3.71074 0.199528 0
-3.71074 0.199528 0
-3.5845 0.196018 0
-3.71074 0.295717 0
-3.58288 0.290836 0
-3.5845 0.196018 0
-3.45547 0.185264 0
-3.58288 0.290836 0
-3.45286 0.275816 0
-3.45547 0.185264 0
-3.31961 0.16722 0
-3.45286 0.275816 0
-3.31707 0.250354 0
-3.31961 0.16722 0
-3.17088 0.143913 0
-3.31707 0.250354 0
-3.16933 0.216941 0
-3.17088 0.143913 0
-3.0031 0.121773 0
-3.16933 0.216941 0
-3.00258 0.184595 0
-3.0031 0.121773 0
-2.81752 0.110963 0
-3.00258 0.184595 0
-2.81723 0.168573 0
-2.81752 0.110963 0
-2.63002 0.117931 0
-2.81723 0.168573 0
-2.63 0.179101 0
-2.63002 0.117931 0
-2.45745 0.136344 0
-2.63 0.179101 0
-2.45862 0.206198 0
-2.45745 0.136344 0
-2.30217 0.155997 0
-2.45862 0.206198 0
-2.30473 0.234518 0
-2.30217 0.155997 0
-2.15811 0.170473 0
-2.30473 0.234518 0
-2.16138 0.255003 0
-2.15811 0.170473 0
-2.01875 0.178071 0
-2.16138 0.255003 0
-2.02186 0.265575 0
-2.01875 0.178071 0
-1.8795 0.17969 0
-2.02186 0.265575 0
-1.88186 0.2677 0
-1.8795 0.17969 0
-1.73756 0.177038 0
-1.88186 0.2677 0
-1.739 0.263835 0
-1.73756 0.177038 0
-1.59141 0.171846 0
-1.739 0.263835 0
-1.59201 0.256408 0
-1.59141 0.171846 0
-1.4404 0.165649 0
-1.59201 0.256408 0
-1.44038 0.247574 0
-1.4404 0.165649 0
-1.28466 0.159733 0
-1.44038 0.247574 0
-1.28426 0.239149 0
-1.28466 0.159733 0
-1.12502 0.155064 0
-1.28426 0.239149 0
-1.12444 0.232511 0
-1.12502 0.155064 0
-0.962852 0.15219 0
-1.12444 0.232511 0
-0.962235 0.228446 0
-0.962852 0.15219 0
-0.799725 0.151182 0
-0.962235 0.228446 0
-0.799184 0.227053 0
-0.799725 0.151182 0
-0.637038 0.151683 0
-0.799184 0.227053 0
-0.636627 0.227817 0
-0.637038 0.151683 0
-0.475684 0.153072 0
-0.636627 0.227817 0
-0.475415 0.229839 0
-0.475684 0.153072 0
-0.315949 0.15466 0
-0.475415 0.229839 0
-0.3158 0.232133 0
-0.315949 0.15466 0
-0.157589 0.155866 0
-0.3158 0.232133 0
-0.157526 0.233868 0
-0.157589 0.155866 0
0 0.156312 0
-0.157526 0.233868 0
0 0.234507 0
0 0.156312 0
0.157589 0.155866 0
0 0.234507 0
0.157526 0.233868 0
0.157589 0.155866 0
0.315949 0.15466 0
0.157526 0.233868 0
0.3158 0.232133 0
0.315949 0.15466 0
0.475684 0.153072 0
0.3158 0.232133 0
0.475415 0.229839 0
0.475684 0.153072 0
0.637038 0.151683 0
0.475415 0.229839 0
0.636627 0.227817 0
0.637038 0.151683 0
0.799725 0.151182 0
0.636627 0.227817 0
0.799184 0.227053 0
0.799725 0.151182 0
0.962852 0.15219 0
0.799184 0.227053 0
0.962235 0.228446 0
0.962852 0.15219 0
1.12502 0.155064 0
0.962235 0.228446 0
[...]
POINT_DATA 2688
SCALARS x1_displacement double 1
LOOKUP_TABLE default
1.92133 1.81165 1.92133 1.81195 1.81165 1.70525 1.81195 1.70573 1.70525 1.60651 1.70573 1.60697 1.60651 1.52129 1.60697 1.52159 1.52129 1.45514 1.52159 1.45527 1.45514 1.40628 1.45527 1.40635 1.40628 1.35937 1.40635 1.35936 1.35937 1.29821 1.35936 1.29798 1.29821 1.21993 1.29798 1.21943 1.21993 1.12995 1.21943 1.12927 1.12995 1.03458 1.12927 1.03391 1.03458 0.938613 1.03391 0.938066 0.938613 0.845125 0.938066 0.844768 0.845125 0.755894 0.844768 0.755723 0.755894 0.671681 0.755723 0.671657 0.671681 0.592392 0.671657 0.592464 0.592392 0.51718 0.592464 0.517302 0.51718 0.444643 0.517302 0.444779 0.444643 0.373155 0.444779 0.373278 0.373155 0.301277 0.373278 0.301374 0.301277 0.228078 0.301374 0.228145 0.228078 0.153248 0.228145 0.153287 0.153248 0.0770192 0.153287 0.0770368 0.0770192 0 0.0770368 0 0 -0.0770192 0 -0.0770368 -0.0770192 -0.153248 -0.0770368 -0.153287 -0.153248 -0.228078 -0.153287 -0.228145 -0.228078 -0.301277 -0.228145 -0.301374 -0.301277 -0.373155 -0.301374 -0.373278 -0.373155 -0.444643 -0.373278 -0.444779 -0.444643 -0.51718 -0.444779 -0.517302 -0.51718 -0.592392 -0.517302 -0.592464 -0.592392 -0.671681 -0.592464 -0.671657 -0.671681 -0.755894 -0.671657 -0.755723 -0.755894 -0.845125 -0.755723 -0.844768 -0.845125 -0.938613 -0.844768 -0.938066 -0.938613 -1.03458 -0.938066 -1.03391 -1.03458 -1.12995 -1.03391 -1.12927 -1.12995 -1.21993 -1.12927 -1.21943 -1.21993 -1.29821 -1.21943 -1.29798 -1.29821 -1.35937 -1.29798 -1.35936 -1.35937 -1.40628 -1.35936 -1.40635 -1.40628 -1.45514 -1.40635 -1.45527 -1.45514 -1.52129 -1.45527 -1.52159 -1.52129 -1.60651 -1.52159 -1.60697 -1.60651 -1.70525 -1.60697 -1.70573 -1.70525 -1.81165 -1.70573 -1.81195 -1.81165 -1.92133 -1.81195 -1.92133 1.92133 1.81195 1.92133 1.8129 1.81195 1.70573 1.8129 1.70726 1.70573 1.60697 1.70726 1.60845 1.60697 1.52159 1.60845 1.52251 1.52159 1.45527 1.52251 1.45562 1.45527 1.40635 1.45562 1.40653 1.40635 1.35936 1.40653 1.35936 1.35936 1.29798 1.35936 1.29727 1.29798 1.21943 1.29727 1.21788 1.21943 1.12927 1.21788 1.12727 1.12927 1.03391 1.12727 1.03196 1.03391 0.938066 1.03196 0.936542 0.938066 0.844768 0.936542 0.84381 0.844768 0.755723 0.84381 0.755295 0.755723 0.671657 0.755295 0.671634 0.671657 0.592464 0.671634 0.592699 0.592464 0.517302 0.592699 0.517666 0.517302 0.444779 0.517666 0.445168 0.444779 0.373278 0.445168 0.373625 0.373278 0.301374 0.373625 0.301641 0.301374 0.228145 0.301641 0.228325 0.228145 0.153287 0.228325 0.153389 0.153287 0.0770368 0.153389 0.0770812 0.0770368 0 0.0770812 0 0 -0.0770368 0 -0.0770812 -0.0770368 -0.153287 -0.0770812 -0.153389 -0.153287 -0.228145 -0.153389 -0.228325 -0.228145 -0.301374 -0.228325 -0.301641 -0.301374 -0.373278 -0.301641 -0.373625 -0.373278 -0.444779 -0.373625 -0.445168 -0.444779 -0.517302 -0.445168 -0.517666 -0.517302 -0.592464 -0.517666 -0.592699 -0.592464 -0.671657 -0.592699 -0.671634 -0.671657 -0.755723 -0.671634 -0.755295 -0.755723 -0.844768 -0.755295 -0.84381 -0.844768 -0.938066 -0.84381 -0.936542 -0.938066 -1.03391 -0.936542 -1.03196 -1.03391 -1.12927 -1.03196 -1.12727 -1.12927 -1.21943 -1.12727 -1.21788 -1.21943 -1.29798 -1.21788 -1.29727 -1.29798 -1.35936 -1.29727 -1.35936 -1.35936 -1.40635 -1.35936 -1.40653 -1.40635 -1.45527 -1.40653 -1.45562 -1.45527 -1.52159 -1.45562 -1.52251 -1.52159 -1.60697 -1.52251 -1.60845 -1.60697 -1.70573 -1.60845 -1.70726 -1.70573 -1.81195 -1.70726 -1.8129 -1.81195 -1.92133 -1.8129 -1.92133 1.92133 1.8129 1.92133 1.81452 1.8129 1.70726 1.81452 1.70987 1.70726 1.60845 1.70987 1.61099 1.60845 1.52251 1.61099 1.52406 1.52251 1.45562 1.52406 1.45614 1.45562 1.40653 1.45614 1.40682 1.40653 1.35936 1.40682 1.35938 1.35936 1.29727 1.35938 1.2961 1.29727 1.21788 1.2961 1.21532 1.21788 1.12727 1.21532 1.124 1.12727 1.03196 1.124 1.02885 1.03196 0.936542 1.02885 0.934177 0.936542 0.84381 0.934177 0.842367 0.84381 0.755295 0.842367 0.754688 0.755295 0.671634 0.754688 0.671651 0.671634 0.592699 0.671651 0.593104 0.592699 0.517666 0.593104 0.518254 0.517666 0.445168 0.518254 0.445785 0.445168 0.373625 0.445785 0.374166 0.373625 0.301641 0.374166 0.302052 0.301641 0.228325 0.302052 0.228594 0.228325 0.153389 0.228594 0.153539 0.153389 0.0770812 0.153539 0.0771443 0.0770812 0 0.0771443 0 0 -0.0770812 0 -0.0771443 -0.0770812 -0.153389 -0.0771443 -0.153539 -0.153389 -0.228325 -0.153539 -0.228594 -0.228325 -0.301641 -0.228594 -0.302052 -0.301641 -0.373625 -0.302052 -0.374166 -0.373625 -0.445168 -0.374166 -0.445785 -0.445168 -0.517666 -0.445785 -0.518254 -0.517666 -0.592699 -0.518254 -0.593104 -0.592699 -0.671634 -0.593104 -0.671651 -0.671634 -0.755295 -0.671651 -0.754688 -0.755295 -0.84381 -0.754688 -0.842367 -0.84381 -0.936542 -0.842367 -0.934177 -0.936542 -1.03196 -0.934177 -1.02885 -1.03196 -1.12727 -1.02885 -1.124 -1.12727 -1.21788 -1.124 -1.21532 -1.21788 -1.29727 -1.21532 -1.2961 -1.29727 -1.35936 -1.2961 -1.35938 -1.35936 -1.40653 -1.35938 -1.40682 -1.40653 -1.45562 -1.40682 -1.45614 -1.45562 -1.52251 -1.45614 -1.52406 -1.52251 -1.60845 -1.52406 -1.61099 -1.60845 -1.70726 -1.61099 -1.70987 -1.70726 -1.8129 -1.70987 -1.81452 -1.8129 -1.92133 -1.81452 -1.92133 1.92133 1.81452 1.92133 1.81687 1.81452 1.70987 1.81687 1.7137 1.70987 1.61099 1.7137 1.61479 1.61099 1.52406 1.61479 1.52641 1.52406 1.45614 1.52641 1.45688 1.45614 1.40682 1.45688 1.40719 1.40682 1.35938 1.40719 1.35939 1.35938 1.2961 1.35939 1.29434 1.2961 1.21532 1.29434 1.21163 1.21532 1.124 1.21163 1.11945 1.124 1.02885 1.11945 1.02468 1.02885 0.934177 1.02468 0.931106 0.934177 0.842367 0.931106 0.840577 0.842367 0.754688 0.840577 0.754012 0.754688 0.671651 0.754012 0.671778 0.671651 0.593104 0.671778 0.593713 0.593104 0.518254 0.593713 0.519073 0.518254 0.445785 0.519073 0.446614 0.445785 0.374166 0.446614 0.374874 0.374166 0.302052 0.374874 0.302573 0.302052 0.228594 0.302573 0.228922 0.228594 0.153539 0.228922 0.153711 0.153539 0.0771443 0.153711 0.0772128 0.0771443 0 0.0772128 0 0 -0.0771443 0 -0.0772128 -0.0771443 -0.153539 -0.0772128 -0.153711 -0.153539 -0.228594 -0.153711 -0.228922 -0.228594 -0.302052 -0.228922 -0.302573 -0.302052 -0.374166 -0.302573 -0.374874 -0.374166 -0.445785 -0.374874 -0.446614 -0.445785 -0.518254 -0.446614 -0.519073 -0.518254 -0.593104 -0.519073 -0.593713 -0.593104 -0.671651 -0.593713 -0.671778 -0.671651 -0.754688 -0.671778 -0.754012 -0.754688 -0.842367 -0.754012 -0.840577 -0.842367 -0.934177 -0.840577 -0.931106 -0.934177 -1.02885 -0.931106 -1.02468 -1.02885 -1.124 -1.02468 -1.11945 -1.124 -1.21532 -1.11945 -1.21163 -1.21532 -1.2961 -1.21163 -1.29434 -1.2961 -1.35938 -1.29434 -1.35939 -1.35938 -1.40682 -1.35939 -1.40719 -1.40682 -1.45614 -1.40719 -1.45688 -1.45614 -1.52406 -1.45688 -1.52641 -1.52406 -1.61099 -1.52641 -1.61479 -1.61099 -1.70987 -1.61479 -1.7137 -1.70987 -1.81452 -1.7137 -1.81687 -1.81452 -1.92133 -1.81687 -1.92133 1.92133 1.81687 1.92133 1.82003 1.81687 1.7137 1.82003 1.71896 1.7137 1.61479 1.71896 1.62016 1.61479 1.52641 1.62016 1.52982 1.52641 1.45688 1.52982 1.45795 1.45688 1.40719 1.45795 1.40766 1.40719 1.35939 1.40766 1.35929 1.35939 1.29434 1.35929 1.29176 1.29434 1.21163 1.29176 1.20658 1.21163 1.11945 1.20658 1.11354 1.11945 1.02468 1.11354 1.01951 1.02468 0.931106 1.01951 0.927476 0.931106 0.840577 0.927476 0.838598 0.840577 0.754012 0.838598 0.7534 0.754012 0.671778 0.7534 0.672111 0.671778 0.593713 0.672111 0.59458 0.593713 0.519073 0.59458 0.520143 0.519073 0.446614 0.520143 0.447648 0.446614 0.374874 0.447648 0.375721 0.374874 0.302573 0.375721 0.303166 0.302573 0.228922 0.303166 0.229269 0.228922 0.153711 0.229269 0.153876 0.153711 0.0772128 0.153876 0.0772697 0.0772128 0 0.0772697 0 0 -0.0772128 0 -0.0772697 -0.0772128 -0.153711 -0.0772697 -0.153876 -0.153711 -0.228922 -0.153876 -0.229269 -0.228922 -0.302573 -0.229269 -0.303166 -0.302573 -0.374874 -0.303166 -0.375721 -0.374874 -0.446614 -0.375721 -0.447648 -0.446614 -0.519073 -0.447648 -0.520143 -0.519073 -0.593713 -0.520143 -0.59458 -0.593713 -0.671778 -0.59458 -0.672111 -0.671778 -0.754012 -0.672111 -0.7534 -0.754012 -0.840577 -0.7534 -0.838598 -0.840577 -0.931106 -0.838598 -0.927476 -0.931106 -1.02468 -0.927476 -1.01951 -1.02468 -1.11945 -1.01951 -1.11354 -1.11945 -1.21163 -1.11354 -1.20658 -1.21163 -1.29434 -1.20658 -1.29176 -1.29434 -1.35939 -1.29176 -1.35929 -1.35939 -1.40719 -1.35929 -1.40766 -1.40719 -1.45688 -1.40766 -1.45795 -1.45688 -1.52641 -1.45795 -1.52982 -1.52641 -1.61479 -1.52982 -1.62016 -1.61479 -1.7137 -1.62016 -1.71896 -1.7137 -1.81687 -1.71896 -1.82003 -1.81687 -1.92133 -1.82003 -1.92133 1.92133 1.82003 1.92133 1.82408 1.82003 1.71896 1.82408 1.72587 1.71896 1.62016 1.72587 1.62751 1.62016 1.52982 1.62751 1.53475 1.52982 1.45795 1.53475 1.45956 1.45795 1.40766 1.45956 1.40821 1.40766 1.35929 1.40821 1.35891 1.35929 1.29176 1.35891 1.28799 1.29176 1.20658 1.28799 1.19984 1.20658 1.11354 1.19984 1.10616 1.11354 1.01951 1.10616 1.01341 1.01951 0.927476 1.01341 0.92345 0.927476 0.838598 0.92345 0.836607 0.838598 0.7534 0.836607 0.753006 0.7534 0.672111 0.753006 0.672765 0.672111 0.59458 0.672765 0.59578 0.59458 0.520143 0.59578 0.521497 0.520143 0.447648 0.521497 0.448883 0.447648 0.375721 0.448883 0.376677 0.375721 0.303166 0.376677 0.303786 0.303166 0.229269 0.303786 0.22959 0.229269 0.153876 0.22959 0.153994 0.153876 0.0772697 0.153994 0.0772938 0.0772697 0 0.0772938 0 0 -0.0772697 0 -0.0772938 -0.0772697 -0.153876 -0.0772938 -0.153994 -0.153876 -0.229269 -0.153994 -0.22959 -0.229269 -0.303166 -0.22959 -0.303786 -0.303166 -0.375721 -0.303786 -0.376677 -0.375721 -0.447648 -0.376677 -0.448883 -0.447648 -0.520143 -0.448883 -0.521497 -0.520143 -0.59458 -0.521497 -0.59578 -0.59458 -0.672111 -0.59578 -0.672765 -0.672111 -0.7534 -0.672765 -0.753006 -0.7534 -0.838598 -0.753006 -0.836607 -0.838598 -0.927476 -0.836607 -0.92345 -0.927476 -1.01951 -0.92345 -1.01341 -1.01951 -1.11354 -1.01341 -1.10616 -1.11354 -1.20658 -1.10616 -1.19984 -1.20658 -1.29176 -1.19984 -1.28799 -1.29176 -1.35929 -1.28799 -1.35891 -1.35929 -1.40766 -1.35891 -1.40821 -1.40766 -1.45795 -1.40821 -1.45956 -1.45795 -1.52982 -1.45956 -1.53475 -1.52982 -1.62016 -1.53475 -1.62751 -1.62016 -1.71896 -1.62751 -1.72587 -1.71896 -1.82003 -1.72587 -1.82408 -1.82003 -1.92133 -1.82408 -1.92133 1.92133 1.82408 1.92133 1.82906 1.82408 1.72587 1.82906 1.73466 1.72587 1.62751 1.73466 1.63736 1.62751 1.53475 1.63736 1.54181 1.53475 1.45956 1.54181 1.462 1.45956 1.40821 1.462 1.40886 1.40821 1.35891 1.40886 1.35797 1.35891 1.28799 1.35797 1.28247 1.28799 1.19984 1.28247 1.19098 1.19984 1.10616 1.19098 1.0972 1.10616 1.01341 1.0972 1.00649 1.01341 0.92345 1.00649 0.91922 0.92345 0.836607 0.91922 0.8348 0.836607 0.753006 0.8348 0.753002 0.753006 0.672765 0.753002 0.673877 0.672765 0.59578 0.673877 0.597402 0.59578 0.521497 0.597402 0.523174 0.521497 0.448883 0.523174 0.450318 0.448883 0.376677 0.450318 0.377709 0.376677 0.303786 0.377709 0.304382 0.303786 0.22959 0.304382 0.229829 0.22959 0.153994 0.229829 0.154021 0.153994 0.0772938 0.154021 0.0772602 0.0772938 0 0.0772602 0 0 -0.0772938 0 -0.0772602 -0.0772938 -0.153994 -0.0772602 -0.154021 -0.153994 -0.22959 -0.154021 -0.229829 -0.22959 -0.303786 -0.229829 -0.304382 -0.303786 -0.376677 -0.304382 -0.377709 -0.376677 -0.448883 -0.377709 -0.450318 -0.448883 -0.521497 -0.450318 -0.523174 -0.521497 -0.59578 -0.523174 -0.597402 -0.59578 -0.672765 -0.597402 -0.673877 -0.672765 -0.753006 -0.673877 -0.753002 -0.753006 -0.836607 -0.753002 -0.8348 -0.836607 -0.92345 -0.8348 -0.91922 -0.92345 -1.01341 -0.91922 -1.00649 -1.01341 -1.10616 -1.00649 -1.0972 -1.10616 -1.19984 -1.0972 -1.19098 -1.19984 -1.28799 -1.19098 -1.28247 -1.28799 -1.35891 -1.28247 -1.35797 -1.35891 -1.40821 -1.35797 -1.40886 -1.40821 -1.45956 -1.40886 -1.462 -1.45956 -1.53475 -1.462 -1.54181 -1.53475 -1.62751 -1.54181 -1.63736 -1.62751 -1.72587 -1.63736 -1.73466 -1.72587 -1.82408 -1.73466 -1.82906 -1.82408 -1.92133 -1.82906 -1.92133 1.92133 1.82906 1.92133 1.83496 1.82906 1.73466 1.83496 1.74548 1.73466 1.63736 1.74548 1.65025 1.63736 1.54181 1.65025 1.55182 1.54181 1.462 1.55182 1.46577 1.462 1.40886 1.46577 1.40961 1.40886 1.35797 1.40961 1.35606 1.35797 1.28247 1.35606 1.27445 1.28247 1.19098 1.27445 1.17951 1.19098 1.0972 1.17951 1.08659 1.0972 1.00649 1.08659 0.998932 1.00649 0.91922 0.998932 0.915005 0.91922 0.8348 0.915005 0.833393 0.8348 0.753002 0.833393 0.75358 0.753002 0.673877 0.75358 0.675595 0.673877 0.597402 0.675595 0.599547 0.597402 0.523174 0.599547 0.525225 0.523174 0.450318 0.525225 0.451951 0.450318 0.377709 0.451951 0.378775 0.377709 0.304382 0.378775 0.304891 0.304382 0.229829 0.304891 0.229918 0.229829 0.154021 0.229918 0.153903 0.154021 0.0772602 0.153903 0.0771401 0.0772602 0 0.0771401 0 0 -0.0772602 0 -0.0771401 -0.0772602 -0.154021 -0.0771401 -0.153903 -0.154021 -0.229829 -0.153903 -0.229918 -0.229829 -0.304382 -0.229918 -0.304891 -0.304382 -0.377709 -0.304891 -0.378775 -0.377709 -0.450318 -0.378775 -0.451951 -0.450318 -0.523174 -0.451951 -0.525225 -0.523174 -0.597402 -0.525225 -0.599547 -0.597402 -0.673877 -0.599547 -0.675595 -0.673877 -0.753002 -0.675595 -0.75358 -0.753002 -0.8348 -0.75358 -0.833393 -0.8348 -0.91922 -0.833393 -0.915005 -0.91922 -1.00649 -0.915005 -0.998932 -1.00649 -1.0972 -0.998932 -1.08659 -1.0972 -1.19098 -1.08659 -1.17951 -1.19098 -1.28247 -1.17951 -1.27445 -1.28247 -1.35797 -1.27445 -1.35606 -1.35797 -1.40886 -1.35606 -1.40961 -1.40886 -1.462 -1.40961 -1.46577 -1.462 -1.54181 -1.46577 -1.55182 -1.54181 -1.63736 -1.55182 -1.65025 -1.63736 -1.73466 -1.65025 -1.74548 -1.73466 -1.82906 -1.74548 -1.83496 -1.82906 -1.92133 -1.83496 -1.92133 1.92133 1.83496 1.92133 1.84169 1.83496 1.74548 1.84169 1.75832 1.74548 1.65025 1.75832 1.66672 1.65025 1.55182 1.66672 1.56589 1.55182 1.46577 1.56589 1.47162 1.46577 1.40961 1.47162 1.41046 1.40961 1.35606 1.41046 1.35247 1.35606 1.27445 1.35247 1.26286 1.27445 1.17951 1.26286 1.16493 1.17951 1.08659 1.16493 1.0744 1.08659 0.998932 1.0744 0.990958 0.998932 0.915005 0.990958 0.911055 0.915005 0.833393 0.911055 0.832618 0.833393 0.75358 0.832618 0.754943 0.75358 0.675595 0.754943 0.678087 0.675595 0.599547 0.678087 0.60233 0.599547 0.525225 0.60233 0.527704 0.525225 0.451951 0.527704 0.453777 0.451951 0.378775 0.453777 0.379825 0.378775 0.304891 0.379825 0.305235 0.304891 0.229918 0.305235 0.229781 0.229918 0.153903 0.229781 0.153581 0.153903 0.0771401 0.153581 0.0769008 0.0771401 0 0.0769008 0 0 -0.0771401 0 -0.0769008 -0.0771401 -0.153903 -0.0769008 -0.153581 -0.153903 -0.229918 -0.153581 -0.229781 -0.229918 -0.304891 -0.229781 -0.305235 -0.304891 -0.378775 -0.305235 -0.379825 -0.378775 -0.451951 -0.379825 -0.453777 -0.451951 -0.525225 -0.453777 -0.527704 -0.525225 -0.599547 -0.527704 -0.60233 -0.599547 -0.675595 -0.60233 -0.678087 -0.675595 -0.75358 -0.678087 -0.754943 -0.75358 -0.833393 -0.754943 -0.832618 -0.833393 -0.915005 -0.832618 -0.911055 -0.915005 -0.998932 -0.911055 -0.990958 -0.998932 -1.08659 -0.990958 -1.0744 -1.08659 -1.17951 -1.0744 -1.16493 -1.17951 -1.27445 -1.16493 -1.26286 -1.27445 -1.35606 -1.26286 -1.35247 -1.35606 -1.40961 -1.35247 -1.41046 -1.40961 -1.46577 -1.41046 -1.47162 -1.46577 -1.55182 -1.47162 -1.56589 -1.55182 -1.65025 -1.56589 -1.66672 -1.65025 -1.74548 -1.66672 -1.75832 -1.74548 -1.83496 -1.75832 -1.84169 -1.83496 -1.92133 -1.84169 -1.92133 1.92133 1.84169 1.92133 1.8491 1.84169 1.75832 1.8491 1.77296 1.75832 1.66672 1.77296 1.68709 1.66672 1.56589 1.68709 1.58546 1.56589 1.47162 1.58546 1.48076 1.47162 1.41046 1.48076 1.41142 1.41046 1.35247 1.41142 1.34608 1.35247 1.26286 1.34608 1.24628 1.26286 1.16493 1.24628 1.14688 1.16493 1.0744 1.14688 1.0609 1.0744 0.990958 1.0609 0.982883 0.990958 0.911055 0.982883 0.907639 0.911055 0.832618 0.907639 0.83272 0.832618 0.754943 0.83272 0.757312 0.754943 0.678087 0.757312 0.681536 0.678087 0.60233 0.681536 0.60588 0.60233 0.527704 0.60588 0.53067 0.527704 0.453777 0.53067 0.455786 0.453777 0.379825 0.455786 0.380791 0.379825 0.305235 0.380791 0.305321 0.305235 0.229781 0.305321 0.229325 0.229781 0.153581 0.229325 0.152984 0.153581 0.0769008 0.152984 0.0765059 0.0769008 0 0.0765059 0 0 -0.0769008 0 -0.0765059 -0.0769008 -0.153581 -0.0765059 -0.152984 -0.153581 -0.229781 -0.152984 -0.229325 -0.229781 -0.305235 -0.229325 -0.305321 -0.305235 -0.379825 -0.305321 -0.380791 -0.379825 -0.453777 -0.380791 -0.455786 -0.453777 -0.527704 -0.455786 -0.53067 -0.527704 -0.60233 -0.53067 -0.60588 -0.60233 -0.678087 -0.60588 -0.681536 -0.678087 -0.754943 -0.681536 -0.757312 -0.754943 -0.832618 -0.757312 -0.83272 -0.832618 -0.911055 -0.83272 -0.907639 -0.911055 -0.990958 -0.907639 -0.982883 -0.990958 -1.0744 -0.982883 -1.0609 -1.0744 -1.16493 -1.0609 -1.14688 -1.16493 -1.26286 -1.14688 -1.24628 -1.26286 -1.35247 -1.24628 -1.34608 -1.35247 -1.41046 -1.34608 -1.41142 -1.41046 -1.47162 -1.41142 -1.48076 -1.47162 -1.56589 -1.48076 -1.58546 -1.56589 -1.66672 -1.58546 -1.68709 -1.66672 -1.75832 -1.68709 -1.77296 -1.75832 -1.84169 -1.77296 -1.8491 -1.84169 -1.92133 -1.8491 -1.92133 1.92133 1.8491 1.92133 1.857 1.8491 1.77296 1.857 1.78895 1.77296 1.68709 1.78895 1.7112 1.68709 1.58546 1.7112 1.61226 1.58546 1.48076 1.61226 1.49524 1.48076 1.41142 1.49524 1.41252 1.41142 1.34608 1.41252 1.33491 1.34608 1.24628 1.33491 1.22288 1.24628 1.14688 1.22288 1.12541 1.14688 1.0609 1.12541 1.04658 1.0609 0.982883 1.04658 0.975049 0.982883 0.907639 0.975049 0.905039 0.907639 0.83272 0.905039 0.833952 0.83272 0.757312 0.833952 0.760915 0.757312 0.681536 0.760915 0.686141 0.681536 0.60588 0.686141 0.610342 0.60588 0.53067 0.610342 0.534189 0.53067 0.455786 0.534189 0.457957 0.455786 0.380791 0.457957 0.381589 0.380791 0.305321 0.381589 0.305035 0.305321 0.229325 0.305035 0.228443 0.229325 0.152984 0.228443 0.152036 0.152984 0.0765059 0.152036 0.0759157 0.0765059 0 0.0759157 0 0 -0.0765059 0 -0.0759157 -0.0765059 -0.152984 -0.0759157 -0.152036 -0.152984 -0.229325 -0.152036 -0.228443 -0.229325 -0.305321 -0.228443 -0.305035 -0.305321 -0.380791 -0.305035 -0.381589 -0.380791 -0.455786 -0.381589 -0.457957 -0.455786 -0.53067 -0.457957 -0.534189 -0.53067 -0.60588 -0.534189 -0.610342 -0.60588 -0.681536 -0.610342 -0.686141 -0.681536 -0.757312 -0.686141 -0.760915 -0.757312 -0.83272 -0.760915 -0.833952 -0.83272 -0.907639 -0.833952 -0.905039 -0.907639 -0.982883 -0.905039 -0.975049 -0.982883 -1.0609 -0.975049 -1.04658 -1.0609 -1.14688 -1.04658 -1.12541 -1.14688 -1.24628 -1.12541 -1.22288 -1.24628 -1.34608 -1.22288 -1.33491 -1.34608 -1.41142 -1.33491 -1.41252 -1.41142 -1.48076 -1.41252 -1.49524 -1.48076 -1.58546 -1.49524 -1.61226 -1.58546 -1.68709 -1.61226 -1.7112 -1.68709 -1.77296 -1.7112 -1.78895 -1.77296 -1.8491 -1.78895 -1.857 -1.8491 -1.92133 -1.857 -1.92133 1.92133 1.857 1.92133 1.86522 1.857 1.78895 1.86522 1.80573 1.78895 1.7112 1.80573 1.73795 1.7112 1.61226 1.73795 1.64797 1.61226 1.49524 1.64797 1.51876 1.49524 1.41252 1.51876 1.4138 1.41252 1.33491 1.4138 1.31529 1.33491 1.22288 1.31529 1.19073 1.22288 1.12541 1.19073 1.10157 1.12541 1.04658 1.10157 1.03205 1.04658 0.975049 1.03205 0.967793 0.975049 0.905039 0.967793 0.903549 0.905039 0.833952 0.903549 0.836564 0.833952 0.760915 0.836564 0.765992 0.760915 0.686141 0.765992 0.692123 0.686141 0.610342 0.692123 0.615885 0.610342 0.534189 0.615885 0.538336 0.534189 0.457957 0.538336 0.460257 0.457957 0.381589 0.460257 0.382102 0.381589 0.305035 0.382102 0.304232 0.305035 0.228443 0.304232 0.227009 0.228443 0.152036 0.227009 0.150648 0.152036 0.0759157 0.150648 0.075088 0.0759157 0 0.075088 0 0 -0.0759157 0 -0.075088 -0.0759157 -0.152036 -0.075088 -0.150648 -0.152036 -0.228443 -0.150648 -0.227009 -0.228443 -0.305035 -0.227009 -0.304232 -0.305035 -0.381589 -0.304232 -0.382102 -0.381589 -0.457957 -0.382102 -0.460257 -0.457957 -0.534189 -0.460257 -0.538336 -0.534189 -0.610342 -0.538336 -0.615885 -0.610342 -0.686141 -0.615885 -0.692123 -0.686141 -0.760915 -0.692123 -0.765992 -0.760915 -0.833952 -0.765992 -0.836564 -0.833952 -0.905039 -0.836564 -0.903549 -0.905039 -0.975049 -0.903549 -0.967793 -0.97504